
     Program PWSCF v.7.3 starts on 28Feb2024 at 15:43:28 

     This program is part of the open-source Quantum ESPRESSO suite
     for quantum simulation of materials; please cite
         "P. Giannozzi et al., J. Phys.:Condens. Matter 21 395502 (2009);
         "P. Giannozzi et al., J. Phys.:Condens. Matter 29 465901 (2017);
         "P. Giannozzi et al., J. Chem. Phys. 152 154105 (2020);
          URL http://www.quantum-espresso.org", 
     in publications or presentations arising from this work. More details at
     http://www.quantum-espresso.org/quote

     Parallel version (MPI & OpenMP), running on    4000 processor cores
     Number of MPI processes:              4000
     Threads/MPI process:                     1

     MPI processes distributed on   100 nodes
     175194 MiB available memory on the printing compute node when the environment starts

     Reading input from Ta2O5-2x2xz-552.in

     Current dimensions of program PWSCF are:
     Max number of different atomic species (ntypx) = 10
     Max number of k-points (npk) =  40000
     Max angular momentum in pseudopotentials (lmaxx) =  4
     file Ta.rel-pz-spn-kjpaw_psl.0.2.UPF: wavefunction(s)  5D renormalized
     file O.rel-pz-n-kjpaw_psl.0.1.UPF: wavefunction(s)  2P 2P renormalized
     Found identity + (  0.0000  0.5000  0.0000) symmetry
     This is a supercell, fractional translations are disabled

     K-points division:     npool     =      25
     R & G space division:  proc/nbgrp/npool/nimage =     160
     Subspace diagonalization in iterative solution of the eigenvalue problem:
     one sub-group per band group will be used
     scalapack distributed-memory algorithm (size of sub-group: 10* 10 procs)


     Parallelization info
     --------------------
     sticks:   dense  smooth     PW     G-vecs:    dense   smooth      PW
     Min         158     158     40                22778    22778    2974
     Max         159     159     41                22789    22789    2987
     Sum       25399   25399   6547              3645397  3645397  477247

     Using Slab Decomposition



     bravais-lattice index     =            8
     lattice parameter (alat)  =      26.9474  a.u.
     unit-cell volume          =   18204.1780 (a.u.)^3
     number of atoms/cell      =           96
     number of atomic types    =            2
     number of electrons       =       800.00
     number of Kohn-Sham states=          960
     kinetic-energy cutoff     =     130.0000  Ry
     charge density cutoff     =     520.0000  Ry
     scf convergence threshold =      1.0E-08
     mixing beta               =       0.5000
     number of iterations used =            8  plain     mixing
     Exchange-correlation= SLA  PZ   NOGX NOGC
                           (   1   1   0   0   0   0   0)
     Non magnetic calculation with spin-orbit


     celldm(1)=  26.947400  celldm(2)=   0.845722  celldm(3)=   1.100000
     celldm(4)=   0.000000  celldm(5)=   0.000000  celldm(6)=   0.000000

     crystal axes: (cart. coord. in units of alat)
               a(1) = (   1.000000   0.000000   0.000000 )  
               a(2) = (   0.000000   0.845722   0.000000 )  
               a(3) = (   0.000000   0.000000   1.100000 )  

     reciprocal axes: (cart. coord. in units 2 pi/alat)
               b(1) = (  1.000000  0.000000  0.000000 )  
               b(2) = (  0.000000  1.182421  0.000000 )  
               b(3) = (  0.000000  0.000000  0.909091 )  


     PseudoPot. # 1 for Ta read from file:
     ./Ta.rel-pz-spn-kjpaw_psl.0.2.UPF
     MD5 check sum: f5fa0c5aa60b86a2cc9311d2a5cb1a5e
     Pseudo is Projector augmented-wave + core cor, Zval = 13.0
     Generated using "atomic" code by A. Dal Corso  v.5.0.2 svn rev. 9415
     Shape of augmentation charge: PSQ
     Using radial grid of 1273 points, 10 beta functions with: 
                l(1) =   0
                l(2) =   0
                l(3) =   1
                l(4) =   1
                l(5) =   1
                l(6) =   1
                l(7) =   2
                l(8) =   2
                l(9) =   2
               l(10) =   2
     Q(r) pseudized with 0 coefficients 


     PseudoPot. # 2 for O  read from file:
     ./O.rel-pz-n-kjpaw_psl.0.1.UPF
     MD5 check sum: 99a75500bac7e9a50f05994ea9d913df
     Pseudo is Projector augmented-wave + core cor, Zval =  6.0
     Generated using "atomic" code by A. Dal Corso  v.5.0.2 svn rev. 9415
     Shape of augmentation charge: BESSEL
     Using radial grid of 1095 points,  6 beta functions with: 
                l(1) =   0
                l(2) =   0
                l(3) =   1
                l(4) =   1
                l(5) =   1
                l(6) =   1
     Q(r) pseudized with 0 coefficients 


     atomic species   valence    mass     pseudopotential
     Ta               13.00   180.95000     Ta( 1.00)
     O                 6.00    15.99900     O ( 1.00)

     No symmetry found



   Cartesian axes

     site n.     atom                  positions (alat units)
         1        Ta     tau(   1) = (   0.0000000   0.4228612   0.0000000  )
         2        Ta     tau(   2) = (   0.1250000   0.6156858   0.0000000  )
         3        Ta     tau(   3) = (   0.3750000   0.6507833   0.0000000  )
         4        Ta     tau(   4) = (   0.2500000   0.4228612   0.0000000  )
         5        Ta     tau(   5) = (   0.1250000   0.1928247   0.0000000  )
         6        Ta     tau(   6) = (   0.0000000   0.0000000   0.0000000  )
         7        Ta     tau(   7) = (   0.2500000   0.0000000   0.0000000  )
         8        Ta     tau(   8) = (   0.3750000   0.2279222   0.0000000  )
         9        Ta     tau(   9) = (   0.5000000   0.4228612   0.0000000  )
        10        Ta     tau(  10) = (   0.6250000   0.6156858   0.0000000  )
        11        Ta     tau(  11) = (   0.7500000   0.4228612   0.0000000  )
        12        Ta     tau(  12) = (   0.6250000   0.1928247   0.0000000  )
        13        Ta     tau(  13) = (   0.5000000   0.0000000   0.0000000  )
        14        Ta     tau(  14) = (   0.7500000   0.0000000   0.0000000  )
        15        Ta     tau(  15) = (   0.8750000   0.2279222   0.0000000  )
        16        Ta     tau(  16) = (   0.8750000   0.6507833   0.0000000  )
        17        Ta     tau(  17) = (   0.2500000   0.0000000   0.2678820  )
        18        Ta     tau(  18) = (   0.5000000   0.0000000   0.2678820  )
        19        Ta     tau(  19) = (   0.7500000   0.0000000   0.2678820  )
        20        Ta     tau(  20) = (   1.0000000   0.0000000   0.2678820  )
        21        Ta     tau(  21) = (   0.1250000   0.1928247   0.2678820  )
        22        Ta     tau(  22) = (   0.0000000   0.4228612   0.2678820  )
        23        Ta     tau(  23) = (   0.2500000   0.4228612   0.2678820  )
        24        Ta     tau(  24) = (   0.3750000   0.2279222   0.2678820  )
        25        Ta     tau(  25) = (   0.6250000   0.1928247   0.2678820  )
        26        Ta     tau(  26) = (   0.5000000   0.4228612   0.2678820  )
        27        Ta     tau(  27) = (   0.7500000   0.4228612   0.2678820  )
        28        Ta     tau(  28) = (   0.8750000   0.2279222   0.2678820  )
        29        Ta     tau(  29) = (   0.8750000   0.6507833   0.2678820  )
        30        Ta     tau(  30) = (   0.6250000   0.6156858   0.2678820  )
        31        Ta     tau(  31) = (   0.3750000   0.6507833   0.2678820  )
        32        Ta     tau(  32) = (   0.1250000   0.6156858   0.2678820  )
        33        O      tau(  33) = (   0.0000000   0.4190554   0.1339411  )
        34        O      tau(  34) = (   0.0295000   0.2871227   0.0000000  )
        35        O      tau(  35) = (   0.1255000   0.0494748   0.0000000  )
        36        O      tau(  36) = (   0.1250000   0.1814074   0.1339411  )
        37        O      tau(  37) = (   0.2220000   0.2871227   0.0000000  )
        38        O      tau(  38) = (   0.2820000   0.1302412   0.0000000  )
        39        O      tau(  39) = (   0.3750000   0.2351108   0.1339411  )
        40        O      tau(  40) = (   0.4695000   0.1302412   0.0000000  )
        41        O      tau(  41) = (   0.6255000   0.0494748   0.0000000  )
        42        O      tau(  42) = (   0.6250000   0.1814074   0.1339411  )
        43        O      tau(  43) = (   0.7820000   0.1302412   0.0000000  )
        44        O      tau(  44) = (   0.8750000   0.2351108   0.1339411  )
        45        O      tau(  45) = (   0.9695000   0.1302412   0.0000000  )
        46        O      tau(  46) = (   0.7220000   0.2871227   0.0000000  )
        47        O      tau(  47) = (   0.8755000   0.3687349   0.0000000  )
        48        O      tau(  48) = (   0.7500000   0.4190554   0.1339411  )
        49        O      tau(  49) = (   0.5295000   0.2871227   0.0000000  )
        50        O      tau(  50) = (   0.5000000   0.4190554   0.1339411  )
        51        O      tau(  51) = (   0.3755000   0.3687349   0.0000000  )
        52        O      tau(  52) = (   0.2500000   0.4190554   0.1339411  )
        53        O      tau(  53) = (   0.1255000   0.4723359   0.0000000  )
        54        O      tau(  54) = (   0.2820000   0.5531024   0.0000000  )
        55        O      tau(  55) = (   0.4695000   0.5531024   0.0000000  )
        56        O      tau(  56) = (   0.6255000   0.4723359   0.0000000  )
        57        O      tau(  57) = (   0.7820000   0.5531024   0.0000000  )
        58        O      tau(  58) = (   0.9695000   0.5531024   0.0000000  )
        59        O      tau(  59) = (   0.8750000   0.6579719   0.1339411  )
        60        O      tau(  60) = (   0.8755000   0.7915961   0.0000000  )
        61        O      tau(  61) = (   0.7220000   0.7099839   0.0000000  )
        62        O      tau(  62) = (   0.6250000   0.6042686   0.1339411  )
        63        O      tau(  63) = (   0.5295000   0.7099839   0.0000000  )
        64        O      tau(  64) = (   0.3750000   0.6579719   0.1339411  )
        65        O      tau(  65) = (   0.3755000   0.7915961   0.0000000  )
        66        O      tau(  66) = (   0.2220000   0.7099839   0.0000000  )
        67        O      tau(  67) = (   0.1250000   0.6042686   0.1339411  )
        68        O      tau(  68) = (   0.0295000   0.7099839   0.0000000  )
        69        O      tau(  69) = (   0.0000000   0.8419165   0.1339411  )
        70        O      tau(  70) = (   0.2500000   0.8419165   0.1339411  )
        71        O      tau(  71) = (   0.5000000   0.8419165   0.1339411  )
        72        O      tau(  72) = (   0.7500000   0.8419165   0.1339411  )
        73        O      tau(  73) = (   0.1255000   0.0494748   0.2678820  )
        74        O      tau(  74) = (   0.2820000   0.1302412   0.2678820  )
        75        O      tau(  75) = (   0.4695000   0.1302412   0.2678820  )
        76        O      tau(  76) = (   0.6255000   0.0494748   0.2678820  )
        77        O      tau(  77) = (   0.7820000   0.1302412   0.2678820  )
        78        O      tau(  78) = (   0.9695000   0.1302412   0.2678820  )
        79        O      tau(  79) = (   0.7220000   0.2871227   0.2678820  )
        80        O      tau(  80) = (   0.5295000   0.2871227   0.2678820  )
        81        O      tau(  81) = (   0.3755000   0.3687349   0.2678820  )
        82        O      tau(  82) = (   0.2220000   0.2871227   0.2678820  )
        83        O      tau(  83) = (   0.0295000   0.2871227   0.2678820  )
        84        O      tau(  84) = (   0.1255000   0.4723359   0.2678820  )
        85        O      tau(  85) = (   0.2820000   0.5531024   0.2678820  )
        86        O      tau(  86) = (   0.4695000   0.5531024   0.2678820  )
        87        O      tau(  87) = (   0.6255000   0.4723359   0.2678820  )
        88        O      tau(  88) = (   0.7820000   0.5531024   0.2678820  )
        89        O      tau(  89) = (   0.8755000   0.3687349   0.2678820  )
        90        O      tau(  90) = (   0.9695000   0.5531024   0.2678820  )
        91        O      tau(  91) = (   0.8755000   0.7915961   0.2678820  )
        92        O      tau(  92) = (   0.7220000   0.7099839   0.2678820  )
        93        O      tau(  93) = (   0.5295000   0.7099839   0.2678820  )
        94        O      tau(  94) = (   0.3755000   0.7915961   0.2678820  )
        95        O      tau(  95) = (   0.2220000   0.7099839   0.2678820  )
        96        O      tau(  96) = (   0.0295000   0.7099839   0.2678820  )

     number of k points=    26  Marzari-Vanderbilt smearing, width (Ry)=  0.0500
                       cart. coord. in units 2pi/alat
        k(    1) = (   0.0000000   0.0000000   0.0000000), wk =   0.0200000
        k(    2) = (   0.0000000   0.0000000  -0.4545455), wk =   0.0200000
        k(    3) = (   0.0000000   0.2364842   0.0000000), wk =   0.0400000
        k(    4) = (   0.0000000   0.2364842  -0.4545455), wk =   0.0400000
        k(    5) = (   0.0000000   0.4729685   0.0000000), wk =   0.0400000
        k(    6) = (   0.0000000   0.4729685  -0.4545455), wk =   0.0400000
        k(    7) = (   0.2000000   0.0000000   0.0000000), wk =   0.0400000
        k(    8) = (   0.2000000   0.0000000  -0.4545455), wk =   0.0400000
        k(    9) = (   0.2000000   0.2364842   0.0000000), wk =   0.0400000
        k(   10) = (   0.2000000   0.2364842  -0.4545455), wk =   0.0400000
        k(   11) = (   0.2000000   0.4729685   0.0000000), wk =   0.0400000
        k(   12) = (   0.2000000   0.4729685  -0.4545455), wk =   0.0400000
        k(   13) = (   0.2000000  -0.4729685   0.0000000), wk =   0.0400000
        k(   14) = (   0.2000000  -0.4729685  -0.4545455), wk =   0.0400000
        k(   15) = (   0.2000000  -0.2364842   0.0000000), wk =   0.0400000
        k(   16) = (   0.2000000  -0.2364842  -0.4545455), wk =   0.0400000
        k(   17) = (   0.4000000   0.0000000   0.0000000), wk =   0.0400000
        k(   18) = (   0.4000000   0.0000000  -0.4545455), wk =   0.0400000
        k(   19) = (   0.4000000   0.2364842   0.0000000), wk =   0.0400000
        k(   20) = (   0.4000000   0.2364842  -0.4545455), wk =   0.0400000
        k(   21) = (   0.4000000   0.4729685   0.0000000), wk =   0.0400000
        k(   22) = (   0.4000000   0.4729685  -0.4545455), wk =   0.0400000
        k(   23) = (   0.4000000  -0.4729685   0.0000000), wk =   0.0400000
        k(   24) = (   0.4000000  -0.4729685  -0.4545455), wk =   0.0400000
        k(   25) = (   0.4000000  -0.2364842   0.0000000), wk =   0.0400000
        k(   26) = (   0.4000000  -0.2364842  -0.4545455), wk =   0.0400000

     Dense  grid:  3645397 G-vectors     FFT dimensions: ( 200, 180, 216)

     Estimated max dynamical RAM per process >     950.48 MB

     Estimated total dynamical RAM >    3629.35 GB

     Initial potential from superposition of free atoms

     starting charge     799.9785, renormalised to     800.0000

     negative rho (up, down):  2.892E-03 0.000E+00
     Starting wfcs are 1344 randomized atomic wfcs
     Checking if some PAW data can be deallocated... 

     total cpu time spent up to now is      276.0 secs

     Self-consistent Calculation

     iteration #  1     ecut=   130.00 Ry     beta= 0.50
     Davidson diagonalization with overlap
     ethr =  1.00E-02,  avg # of iterations =  2.0

     negative rho (up, down):  1.670E-03 0.000E+00

     total cpu time spent up to now is      456.2 secs

     total energy              =  -25416.53133492 Ry
     estimated scf accuracy    <      40.19264890 Ry

     iteration #  2     ecut=   130.00 Ry     beta= 0.50
     Davidson diagonalization with overlap
     ethr =  5.02E-03,  avg # of iterations =  6.6

     negative rho (up, down):  6.864E-05 0.000E+00

     total cpu time spent up to now is      715.6 secs

     total energy              =  -25410.66073709 Ry
     estimated scf accuracy    <     112.91046623 Ry

     iteration #  3     ecut=   130.00 Ry     beta= 0.50
     Davidson diagonalization with overlap
     ethr =  5.02E-03,  avg # of iterations =  3.2

     negative rho (up, down):  1.006E-04 0.000E+00

     total cpu time spent up to now is      926.7 secs

     total energy              =  -25433.42851770 Ry
     estimated scf accuracy    <      12.45585903 Ry

     iteration #  4     ecut=   130.00 Ry     beta= 0.50
     Davidson diagonalization with overlap
     ethr =  1.56E-03,  avg # of iterations =  2.0

     negative rho (up, down):  1.081E-04 0.000E+00

     total cpu time spent up to now is     1094.5 secs

     total energy              =  -25434.07277089 Ry
     estimated scf accuracy    <       4.41604594 Ry

     iteration #  5     ecut=   130.00 Ry     beta= 0.50
     Davidson diagonalization with overlap
     ethr =  5.52E-04,  avg # of iterations =  2.0

     negative rho (up, down):  1.292E-04 0.000E+00

     total cpu time spent up to now is     1258.7 secs

     total energy              =  -25433.94706384 Ry
     estimated scf accuracy    <       5.28897885 Ry

     iteration #  6     ecut=   130.00 Ry     beta= 0.50
     Davidson diagonalization with overlap
     ethr =  5.52E-04,  avg # of iterations =  2.0

     negative rho (up, down):  1.584E-04 0.000E+00

     total cpu time spent up to now is     1425.0 secs

     total energy              =  -25433.91837558 Ry
     estimated scf accuracy    <       2.21533741 Ry

     iteration #  7     ecut=   130.00 Ry     beta= 0.50
     Davidson diagonalization with overlap
     ethr =  2.77E-04,  avg # of iterations =  2.0

     negative rho (up, down):  1.744E-04 0.000E+00

     total cpu time spent up to now is     1601.5 secs

     total energy              =  -25433.94140146 Ry
     estimated scf accuracy    <       2.87917705 Ry

     iteration #  8     ecut=   130.00 Ry     beta= 0.50
     Davidson diagonalization with overlap
     ethr =  2.77E-04,  avg # of iterations =  1.4

     negative rho (up, down):  1.944E-04 0.000E+00

     total cpu time spent up to now is     1757.0 secs

     total energy              =  -25434.05368429 Ry
     estimated scf accuracy    <       0.52200601 Ry

     iteration #  9     ecut=   130.00 Ry     beta= 0.50
     Davidson diagonalization with overlap
     c_bands:  1 eigenvalues not converged
     ethr =  6.53E-05,  avg # of iterations = 15.1

     negative rho (up, down):  2.136E-04 0.000E+00

     total cpu time spent up to now is     1958.1 secs

     total energy              =  -25434.07304654 Ry
     estimated scf accuracy    <       0.33148487 Ry

     iteration # 10     ecut=   130.00 Ry     beta= 0.50
     Davidson diagonalization with overlap
     c_bands:  2 eigenvalues not converged
     ethr =  4.14E-05,  avg # of iterations =  9.3

     negative rho (up, down):  2.116E-04 0.000E+00

     total cpu time spent up to now is     2223.5 secs

     total energy              =  -25434.07666780 Ry
     estimated scf accuracy    <       0.29987500 Ry

     iteration # 11     ecut=   130.00 Ry     beta= 0.50
     Davidson diagonalization with overlap
     ethr =  3.75E-05,  avg # of iterations =  2.3

     negative rho (up, down):  2.010E-04 0.000E+00

     total cpu time spent up to now is     2394.1 secs

     total energy              =  -25434.09326878 Ry
     estimated scf accuracy    <       0.18437810 Ry

     iteration # 12     ecut=   130.00 Ry     beta= 0.50
     Davidson diagonalization with overlap
     ethr =  2.30E-05,  avg # of iterations =  4.8

     negative rho (up, down):  1.968E-04 0.000E+00

     total cpu time spent up to now is     2572.9 secs

     total energy              =  -25434.10272209 Ry
     estimated scf accuracy    <       0.03434618 Ry

     iteration # 13     ecut=   130.00 Ry     beta= 0.50
     Davidson diagonalization with overlap
     c_bands:  3 eigenvalues not converged
     ethr =  4.29E-06,  avg # of iterations = 17.5

     negative rho (up, down):  1.971E-04 0.000E+00

     total cpu time spent up to now is     2802.7 secs

     total energy              =  -25434.10324545 Ry
     estimated scf accuracy    <       0.05178222 Ry

     iteration # 14     ecut=   130.00 Ry     beta= 0.50
     Davidson diagonalization with overlap
     ethr =  4.29E-06,  avg # of iterations =  2.7

     negative rho (up, down):  1.973E-04 0.000E+00

     total cpu time spent up to now is     2976.2 secs

     total energy              =  -25434.10529837 Ry
     estimated scf accuracy    <       0.02095595 Ry

     iteration # 15     ecut=   130.00 Ry     beta= 0.50
     Davidson diagonalization with overlap
     ethr =  2.62E-06,  avg # of iterations =  3.1

     negative rho (up, down):  1.975E-04 0.000E+00

     total cpu time spent up to now is     3152.0 secs

     total energy              =  -25434.10469222 Ry
     estimated scf accuracy    <       0.04848117 Ry

     iteration # 16     ecut=   130.00 Ry     beta= 0.50
     Davidson diagonalization with overlap
     ethr =  2.62E-06,  avg # of iterations =  2.2

     negative rho (up, down):  1.960E-04 0.000E+00

     total cpu time spent up to now is     3321.3 secs

     total energy              =  -25434.10613036 Ry
     estimated scf accuracy    <       0.01622401 Ry

     iteration # 17     ecut=   130.00 Ry     beta= 0.50
     Davidson diagonalization with overlap
     ethr =  2.03E-06,  avg # of iterations =  1.9

     negative rho (up, down):  1.939E-04 0.000E+00

     total cpu time spent up to now is     3489.6 secs

     total energy              =  -25434.10643530 Ry
     estimated scf accuracy    <       0.01379814 Ry

     iteration # 18     ecut=   130.00 Ry     beta= 0.50
     Davidson diagonalization with overlap
     ethr =  1.72E-06,  avg # of iterations =  1.0

     negative rho (up, down):  1.922E-04 0.000E+00

     total cpu time spent up to now is     3634.6 secs

     total energy              =  -25434.10689555 Ry
     estimated scf accuracy    <       0.00464184 Ry

     iteration # 19     ecut=   130.00 Ry     beta= 0.50
     Davidson diagonalization with overlap
     ethr =  5.80E-07,  avg # of iterations =  2.0

     negative rho (up, down):  1.906E-04 0.000E+00

     total cpu time spent up to now is     3804.1 secs

     total energy              =  -25434.10706821 Ry
     estimated scf accuracy    <       0.00243012 Ry

     iteration # 20     ecut=   130.00 Ry     beta= 0.50
     Davidson diagonalization with overlap
     ethr =  3.04E-07,  avg # of iterations =  2.0

     negative rho (up, down):  1.890E-04 0.000E+00

     total cpu time spent up to now is     3973.5 secs

     total energy              =  -25434.10714583 Ry
     estimated scf accuracy    <       0.00105979 Ry

     iteration # 21     ecut=   130.00 Ry     beta= 0.50
     Davidson diagonalization with overlap
     ethr =  1.32E-07,  avg # of iterations =  2.0

     negative rho (up, down):  1.880E-04 0.000E+00

     total cpu time spent up to now is     4143.0 secs

     total energy              =  -25434.10718715 Ry
     estimated scf accuracy    <       0.00055032 Ry

     iteration # 22     ecut=   130.00 Ry     beta= 0.50
     Davidson diagonalization with overlap
     ethr =  6.88E-08,  avg # of iterations =  2.1

     negative rho (up, down):  1.870E-04 0.000E+00

     total cpu time spent up to now is     4312.4 secs

     total energy              =  -25434.10721978 Ry
     estimated scf accuracy    <       0.00013261 Ry

     iteration # 23     ecut=   130.00 Ry     beta= 0.50
     Davidson diagonalization with overlap
     ethr =  1.66E-08,  avg # of iterations =  7.0

     negative rho (up, down):  1.868E-04 0.000E+00

     total cpu time spent up to now is     4500.8 secs

     total energy              =  -25434.10722387 Ry
     estimated scf accuracy    <       0.00007219 Ry

     iteration # 24     ecut=   130.00 Ry     beta= 0.50
     Davidson diagonalization with overlap
     ethr =  9.02E-09,  avg # of iterations =  3.9

     negative rho (up, down):  1.865E-04 0.000E+00

     total cpu time spent up to now is     4677.9 secs

     total energy              =  -25434.10722140 Ry
     estimated scf accuracy    <       0.00018898 Ry

     iteration # 25     ecut=   130.00 Ry     beta= 0.50
     Davidson diagonalization with overlap
     ethr =  9.02E-09,  avg # of iterations =  2.5

     negative rho (up, down):  1.863E-04 0.000E+00

     total cpu time spent up to now is     4848.4 secs

     total energy              =  -25434.10722642 Ry
     estimated scf accuracy    <       0.00009380 Ry

     iteration # 26     ecut=   130.00 Ry     beta= 0.50
     Davidson diagonalization with overlap
     ethr =  9.02E-09,  avg # of iterations =  3.3

     negative rho (up, down):  1.861E-04 0.000E+00

     total cpu time spent up to now is     5023.7 secs

     total energy              =  -25434.10722505 Ry
     estimated scf accuracy    <       0.00018481 Ry

     iteration # 27     ecut=   130.00 Ry     beta= 0.50
     Davidson diagonalization with overlap
     ethr =  9.02E-09,  avg # of iterations =  2.6

     negative rho (up, down):  1.860E-04 0.000E+00

     total cpu time spent up to now is     5195.6 secs

     total energy              =  -25434.10722966 Ry
     estimated scf accuracy    <       0.00006545 Ry

     iteration # 28     ecut=   130.00 Ry     beta= 0.50
     Davidson diagonalization with overlap
     ethr =  8.18E-09,  avg # of iterations =  1.2

     negative rho (up, down):  1.860E-04 0.000E+00

     total cpu time spent up to now is     5361.2 secs

     total energy              =  -25434.10723143 Ry
     estimated scf accuracy    <       0.00003848 Ry

     iteration # 29     ecut=   130.00 Ry     beta= 0.50
     Davidson diagonalization with overlap
     ethr =  4.81E-09,  avg # of iterations =  2.0

     negative rho (up, down):  1.859E-04 0.000E+00

     total cpu time spent up to now is     5530.2 secs

     total energy              =  -25434.10723220 Ry
     estimated scf accuracy    <       0.00002841 Ry

     iteration # 30     ecut=   130.00 Ry     beta= 0.50
     Davidson diagonalization with overlap
     ethr =  3.55E-09,  avg # of iterations =  1.0

     negative rho (up, down):  1.858E-04 0.000E+00

     total cpu time spent up to now is     5675.6 secs

     total energy              =  -25434.10723328 Ry
     estimated scf accuracy    <       0.00000784 Ry

     iteration # 31     ecut=   130.00 Ry     beta= 0.50
     Davidson diagonalization with overlap
     ethr =  9.80E-10,  avg # of iterations =  2.2

     negative rho (up, down):  1.857E-04 0.000E+00

     total cpu time spent up to now is     5845.8 secs

     total energy              =  -25434.10723350 Ry
     estimated scf accuracy    <       0.00000602 Ry

     iteration # 32     ecut=   130.00 Ry     beta= 0.50
     Davidson diagonalization with overlap
     ethr =  7.52E-10,  avg # of iterations =  1.2

     negative rho (up, down):  1.857E-04 0.000E+00

     total cpu time spent up to now is     6010.2 secs

     total energy              =  -25434.10723381 Ry
     estimated scf accuracy    <       0.00000164 Ry

     iteration # 33     ecut=   130.00 Ry     beta= 0.50
     Davidson diagonalization with overlap
     ethr =  2.05E-10,  avg # of iterations =  2.0

     negative rho (up, down):  1.857E-04 0.000E+00

     total cpu time spent up to now is     6180.3 secs

     total energy              =  -25434.10723393 Ry
     estimated scf accuracy    <       0.00000044 Ry

     iteration # 34     ecut=   130.00 Ry     beta= 0.50
     Davidson diagonalization with overlap
     ethr =  5.45E-11,  avg # of iterations =  6.3

     negative rho (up, down):  1.856E-04 0.000E+00

     total cpu time spent up to now is     6363.7 secs

     total energy              =  -25434.10723395 Ry
     estimated scf accuracy    <       0.00000106 Ry

     iteration # 35     ecut=   130.00 Ry     beta= 0.50
     Davidson diagonalization with overlap
     ethr =  5.45E-11,  avg # of iterations =  3.5

     negative rho (up, down):  1.856E-04 0.000E+00

     total cpu time spent up to now is     6537.7 secs

     total energy              =  -25434.10723398 Ry
     estimated scf accuracy    <       0.00000109 Ry

     iteration # 36     ecut=   130.00 Ry     beta= 0.50
     Davidson diagonalization with overlap
     ethr =  5.45E-11,  avg # of iterations =  3.0

     negative rho (up, down):  1.856E-04 0.000E+00

     total cpu time spent up to now is     6711.6 secs

     total energy              =  -25434.10723400 Ry
     estimated scf accuracy    <       0.00000073 Ry

     iteration # 37     ecut=   130.00 Ry     beta= 0.50
     Davidson diagonalization with overlap
     ethr =  5.45E-11,  avg # of iterations =  2.3

     negative rho (up, down):  1.856E-04 0.000E+00

     total cpu time spent up to now is     6881.5 secs

     total energy              =  -25434.10723401 Ry
     estimated scf accuracy    <       0.00000040 Ry

     iteration # 38     ecut=   130.00 Ry     beta= 0.50
     Davidson diagonalization with overlap
     ethr =  4.98E-11,  avg # of iterations =  2.0

     negative rho (up, down):  1.856E-04 0.000E+00

     total cpu time spent up to now is     7050.3 secs

     total energy              =  -25434.10723402 Ry
     estimated scf accuracy    <       0.00000045 Ry

     iteration # 39     ecut=   130.00 Ry     beta= 0.50
     Davidson diagonalization with overlap
     ethr =  4.98E-11,  avg # of iterations =  1.3

     negative rho (up, down):  1.856E-04 0.000E+00

     total cpu time spent up to now is     7219.0 secs

     total energy              =  -25434.10723402 Ry
     estimated scf accuracy    <       0.00000028 Ry

     iteration # 40     ecut=   130.00 Ry     beta= 0.50
     Davidson diagonalization with overlap
     ethr =  3.49E-11,  avg # of iterations =  1.7

     negative rho (up, down):  1.856E-04 0.000E+00

     total cpu time spent up to now is     7387.2 secs

     total energy              =  -25434.10723410 Ry
     estimated scf accuracy    <       0.00000014 Ry

     iteration # 41     ecut=   130.00 Ry     beta= 0.50
     Davidson diagonalization with overlap
     ethr =  1.71E-11,  avg # of iterations =  2.0

     negative rho (up, down):  1.856E-04 0.000E+00

     total cpu time spent up to now is     7553.8 secs

     total energy              =  -25434.10723411 Ry
     estimated scf accuracy    <       0.00000007 Ry

     iteration # 42     ecut=   130.00 Ry     beta= 0.50
     Davidson diagonalization with overlap
     ethr =  8.93E-12,  avg # of iterations =  1.4

     negative rho (up, down):  1.856E-04 0.000E+00

     total cpu time spent up to now is     7719.6 secs

     total energy              =  -25434.10723411 Ry
     estimated scf accuracy    <       0.00000003 Ry

     iteration # 43     ecut=   130.00 Ry     beta= 0.50
     Davidson diagonalization with overlap
     ethr =  3.30E-12,  avg # of iterations =  2.0

     negative rho (up, down):  1.856E-04 0.000E+00

     total cpu time spent up to now is     7888.1 secs

     End of self-consistent calculation

          k = 0.0000 0.0000 0.0000 (455621 PWs)   bands (ev):

   -66.0856 -66.0856 -66.0855 -66.0855 -66.0855 -66.0855 -66.0855 -66.0855
   -66.0850 -66.0850 -66.0850 -66.0850 -66.0850 -66.0850 -66.0849 -66.0849
   -66.0482 -66.0482 -66.0481 -66.0481 -66.0481 -66.0481 -66.0481 -66.0481
   -66.0477 -66.0477 -66.0476 -66.0476 -66.0476 -66.0476 -66.0475 -66.0475
   -65.9203 -65.9203 -65.9202 -65.9202 -65.9197 -65.9197 -65.9196 -65.9196
   -65.9186 -65.9186 -65.9185 -65.9185 -65.9183 -65.9183 -65.9182 -65.9182
   -65.9180 -65.9180 -65.9180 -65.9180 -65.9177 -65.9177 -65.9176 -65.9176
   -65.9166 -65.9166 -65.9166 -65.9166 -65.9160 -65.9160 -65.9160 -65.9160
   -39.1010 -39.1010 -39.1010 -39.1010 -39.0991 -39.0991 -39.0961 -39.0961
   -39.0932 -39.0932 -39.0932 -39.0932 -39.0912 -39.0912 -39.0882 -39.0882
   -39.0711 -39.0711 -39.0703 -39.0703 -39.0635 -39.0635 -39.0632 -39.0632
   -39.0624 -39.0624 -39.0601 -39.0601 -39.0555 -39.0555 -39.0521 -39.0521
   -39.0090 -39.0090 -39.0067 -39.0067 -39.0012 -39.0012 -38.9988 -38.9988
   -38.9919 -38.9919 -38.9902 -38.9902 -38.9854 -38.9854 -38.9839 -38.9839
   -38.9837 -38.9837 -38.9822 -38.9822 -38.9773 -38.9773 -38.9756 -38.9756
   -38.9736 -38.9736 -38.9655 -38.9655 -38.9635 -38.9635 -38.9551 -38.9551
   -30.7736 -30.7736 -30.7664 -30.7664 -30.7297 -30.7297 -30.7205 -30.7205
   -30.7018 -30.7018 -30.6984 -30.6984 -30.6915 -30.6915 -30.6893 -30.6893
   -30.6408 -30.6408 -30.6336 -30.6336 -30.6234 -30.6234 -30.6167 -30.6167
   -30.6138 -30.6138 -30.6104 -30.6104 -30.5849 -30.5849 -30.5803 -30.5803
   -30.5732 -30.5732 -30.5693 -30.5693 -30.5417 -30.5417 -30.5385 -30.5385
   -30.5222 -30.5222 -30.5181 -30.5181 -30.5168 -30.5168 -30.5125 -30.5125
   -30.4659 -30.4659 -30.4638 -30.4638 -30.4382 -30.4382 -30.4324 -30.4324
   -30.4168 -30.4168 -30.4135 -30.4135 -30.4075 -30.4075 -30.3796 -30.3796
   -30.3628 -30.3628 -30.3625 -30.3625 -30.3613 -30.3613 -30.3603 -30.3603
   -30.3453 -30.3453 -30.3367 -30.3367 -30.3339 -30.3339 -30.3307 -30.3307
   -30.3220 -30.3220 -30.3177 -30.3177 -30.3131 -30.3131 -30.3129 -30.3129
   -30.3107 -30.3107 -30.3056 -30.3056 -30.2963 -30.2963 -30.2957 -30.2957
   -30.2945 -30.2945 -30.2924 -30.2924 -30.2924 -30.2924 -30.2897 -30.2897
   -30.2830 -30.2830 -30.2728 -30.2728 -30.2726 -30.2726 -30.2655 -30.2655
   -30.2633 -30.2633 -30.2448 -30.2448 -30.2429 -30.2429 -30.2385 -30.2385
   -30.2356 -30.2356 -30.2277 -30.2277 -30.2185 -30.2185 -30.2184 -30.2184
   -18.1259 -18.1259 -18.0822 -18.0822 -17.8572 -17.8572 -17.8281 -17.8281
   -17.4490 -17.4490 -17.4305 -17.4305 -17.4046 -17.4046 -17.3831 -17.3831
   -17.2607 -17.2607 -17.2359 -17.2359 -17.1666 -17.1666 -17.1396 -17.1396
   -16.9077 -16.9077 -16.8892 -16.8892 -16.8455 -16.8455 -16.8065 -16.8065
   -16.6102 -16.6102 -16.6020 -16.6020 -16.5246 -16.5246 -16.5242 -16.5242
   -16.5176 -16.5176 -16.5001 -16.5001 -16.4981 -16.4981 -16.4839 -16.4839
   -16.4562 -16.4562 -16.4333 -16.4333 -16.3987 -16.3987 -16.3853 -16.3853
   -16.3778 -16.3778 -16.3730 -16.3730 -16.2826 -16.2826 -16.2562 -16.2562
   -16.0894 -16.0894 -16.0749 -16.0749 -16.0292 -16.0292 -16.0091 -16.0091
   -15.9988 -15.9988 -15.9781 -15.9781 -15.7935 -15.7935 -15.7533 -15.7533
   -15.7058 -15.7058 -15.6957 -15.6957 -15.6120 -15.6120 -15.5823 -15.5823
   -15.5670 -15.5670 -15.5447 -15.5447 -15.5088 -15.5088 -15.4881 -15.4881
   -15.4455 -15.4455 -15.4405 -15.4405 -15.4146 -15.4146 -15.4073 -15.4073
   -15.4057 -15.4057 -15.4050 -15.4050 -15.4017 -15.4017 -15.3845 -15.3845
   -15.3095 -15.3095 -15.3083 -15.3083 -15.3071 -15.3071 -15.2829 -15.2829
   -15.2729 -15.2729 -15.2645 -15.2645 -15.2610 -15.2610 -15.1980 -15.1980
    -6.4679  -6.4679  -6.4484  -6.4484  -6.2207  -6.2207  -6.1964  -6.1964
    -5.9794  -5.9794  -5.9612  -5.9612  -5.5101  -5.5101  -5.4831  -5.4831
    -5.3993  -5.3993  -5.3723  -5.3723  -5.3586  -5.3586  -5.3326  -5.3326
    -5.3249  -5.3249  -5.2920  -5.2920  -5.2730  -5.2730  -5.2335  -5.2335
    -4.9798  -4.9798  -4.9612  -4.9612  -4.9249  -4.9249  -4.9123  -4.9123
    -4.8873  -4.8873  -4.8818  -4.8818  -4.8220  -4.8220  -4.8188  -4.8188
    -4.7876  -4.7876  -4.7233  -4.7233  -4.7195  -4.7195  -4.6933  -4.6933
    -4.6791  -4.6791  -4.6390  -4.6390  -4.6237  -4.6237  -4.5816  -4.5816
    -4.5604  -4.5604  -4.5570  -4.5570  -4.5457  -4.5457  -4.5286  -4.5286
    -4.4669  -4.4669  -4.4637  -4.4637  -4.3049  -4.3049  -4.2223  -4.2223
    -4.0699  -4.0699  -4.0366  -4.0366  -4.0287  -4.0287  -4.0073  -4.0073
    -3.9759  -3.9759  -3.9654  -3.9654  -3.9654  -3.9654  -3.9617  -3.9617
    -3.9410  -3.9410  -3.9338  -3.9338  -3.9083  -3.9083  -3.8038  -3.8038
    -3.7364  -3.7364  -3.7343  -3.7343  -3.7070  -3.7070  -3.6789  -3.6789
    -3.6770  -3.6770  -3.6711  -3.6711  -3.6579  -3.6579  -3.6490  -3.6490
    -3.6168  -3.6168  -3.5974  -3.5974  -3.5550  -3.5550  -3.4672  -3.4672
    -3.4638  -3.4638  -3.4522  -3.4522  -3.4460  -3.4460  -3.4292  -3.4292
    -3.4266  -3.4266  -3.4150  -3.4150  -3.4087  -3.4087  -3.3907  -3.3907
    -3.3876  -3.3876  -3.3370  -3.3370  -3.3262  -3.3262  -3.2814  -3.2814
    -3.2608  -3.2608  -3.2288  -3.2288  -3.2148  -3.2148  -3.1907  -3.1907
    -3.1231  -3.1231  -3.1166  -3.1166  -3.0801  -3.0801  -3.0730  -3.0730
    -3.0496  -3.0496  -3.0229  -3.0229  -3.0202  -3.0202  -3.0182  -3.0182
    -3.0155  -3.0155  -2.9907  -2.9907  -2.9270  -2.9270  -2.9044  -2.9044
    -2.8611  -2.8611  -2.8370  -2.8370  -2.8238  -2.8238  -2.8147  -2.8147
    -2.8068  -2.8068  -2.7654  -2.7654  -2.7623  -2.7623  -2.7328  -2.7328
    -2.7203  -2.7203  -2.7142  -2.7142  -2.6847  -2.6847  -2.6451  -2.6451
    -2.6400  -2.6400  -2.5852  -2.5852  -2.5648  -2.5648  -2.5346  -2.5346
    -2.5106  -2.5106  -2.4851  -2.4851  -2.4703  -2.4703  -2.4553  -2.4553
    -2.4050  -2.4050  -2.3834  -2.3834  -2.3766  -2.3766  -2.3524  -2.3524
    -2.3422  -2.3422  -2.3267  -2.3267  -2.3066  -2.3066  -2.2982  -2.2982
    -2.2556  -2.2556  -2.2333  -2.2333  -2.2218  -2.2218  -2.1890  -2.1890
    -2.1704  -2.1704  -2.1518  -2.1518  -2.0654  -2.0654  -2.0450  -2.0450
    -1.9807  -1.9807  -1.9223  -1.9223  -1.8935  -1.8935  -1.8891  -1.8891
    -1.8785  -1.8785  -1.8630  -1.8630  -1.8186  -1.8186  -1.7846  -1.7846
    -1.7471  -1.7471  -1.7352  -1.7352  -1.5441  -1.5441  -1.5288  -1.5288
    -1.4425  -1.4425  -1.4280  -1.4280  -1.3306  -1.3306  -1.3184  -1.3184
    -1.3139  -1.3139  -1.2986  -1.2986  -1.2637  -1.2637  -1.2459  -1.2459
    -1.2248  -1.2248  -1.2081  -1.2081  -1.1967  -1.1967  -1.1860  -1.1860
    -1.1309  -1.1309  -1.1242  -1.1242  -1.0944  -1.0944  -1.0887  -1.0887
    -1.0536  -1.0536  -1.0459  -1.0459  -0.9971  -0.9971  -0.9804  -0.9804
    -0.9752  -0.9752  -0.9644  -0.9644  -0.8808  -0.8808  -0.7269  -0.7269
    -0.6882  -0.6882  -0.6715  -0.6715  -0.6332  -0.6332  -0.5172  -0.5172
    -0.4934  -0.4934  -0.4768  -0.4768  -0.4717  -0.4717  -0.4481  -0.4481
    -0.4480  -0.4480  -0.3984  -0.3984  -0.3709  -0.3709  -0.3412  -0.3412
    -0.3157  -0.3157  -0.2864  -0.2864  -0.2478  -0.2478  -0.2419  -0.2419
    -0.2409  -0.2409  -0.2142  -0.2142  -0.2077  -0.2077  -0.1950  -0.1950
    -0.1607  -0.1607  -0.1297  -0.1297  -0.1038  -0.1038  -0.0519  -0.0519
    -0.0060  -0.0060   0.0864   0.0864   0.1180   0.1180   0.2223   0.2223
     3.0552   3.0552   3.1788   3.1788   3.1794   3.1794   3.3324   3.3324
     3.3726   3.3726   3.3776   3.3776   3.3924   3.3924   3.4694   3.4694
     3.5421   3.5421   3.6718   3.6718   3.7295   3.7295   3.7468   3.7468
     3.7481   3.7481   3.8053   3.8053   3.8640   3.8640   3.9699   3.9699
     4.0061   4.0061   4.0100   4.0100   4.1193   4.1193   4.1418   4.1418
     4.1788   4.1788   4.1931   4.1931   4.1940   4.1940   4.1946   4.1946
     4.1968   4.1968   4.3199   4.3199   4.3636   4.3636   4.3850   4.3850
     4.4418   4.4418   4.4903   4.4903   4.5144   4.5144   4.5428   4.5428
     4.5795   4.5795   4.5895   4.5895   4.5963   4.5963   4.5998   4.5998
     4.6072   4.6072   4.6175   4.6175   4.6212   4.6212   4.6814   4.6814
     4.6914   4.6914   4.7015   4.7015   4.7103   4.7103   4.7189   4.7189
     4.7322   4.7322   4.7888   4.7888   4.7896   4.7896   4.8081   4.8081
     4.8336   4.8336   4.8547   4.8547   4.8630   4.8630   4.9038   4.9038
     4.9208   4.9208   4.9340   4.9340   4.9476   4.9476   4.9480   4.9480
     4.9674   4.9674   4.9849   4.9849   4.9888   4.9888   4.9934   4.9934
     5.0510   5.0510   5.0761   5.0761   5.1014   5.1014   5.1220   5.1220
     5.1331   5.1331   5.1377   5.1377   5.1619   5.1619   5.1661   5.1661
     5.1781   5.1781   5.1859   5.1859   5.2331   5.2331   5.2739   5.2739
     5.2856   5.2856   5.3409   5.3409   5.3666   5.3666   5.3867   5.3867
     5.4063   5.4063   5.4082   5.4082   5.4731   5.4731   5.4739   5.4739
     5.4874   5.4874   5.5123   5.5123   5.5240   5.5240   5.5652   5.5652
     5.5709   5.5709   5.5846   5.5846   5.6169   5.6169   5.6632   5.6632
     5.7138   5.7139   5.7286   5.7286   5.7835   5.7835   5.8139   5.8139
     5.8179   5.8179   5.8389   5.8390   5.8456   5.8456   5.9048   5.9048

          k = 0.0000 0.0000-0.4545 (455664 PWs)   bands (ev):

   -66.0856 -66.0856 -66.0855 -66.0855 -66.0855 -66.0855 -66.0855 -66.0855
   -66.0850 -66.0850 -66.0850 -66.0850 -66.0850 -66.0850 -66.0849 -66.0849
   -66.0482 -66.0482 -66.0481 -66.0481 -66.0481 -66.0481 -66.0481 -66.0481
   -66.0477 -66.0477 -66.0476 -66.0476 -66.0476 -66.0476 -66.0475 -66.0475
   -65.9203 -65.9203 -65.9202 -65.9202 -65.9197 -65.9197 -65.9196 -65.9196
   -65.9186 -65.9186 -65.9185 -65.9185 -65.9183 -65.9183 -65.9182 -65.9182
   -65.9180 -65.9180 -65.9180 -65.9180 -65.9177 -65.9177 -65.9176 -65.9176
   -65.9166 -65.9166 -65.9166 -65.9166 -65.9160 -65.9160 -65.9160 -65.9160
   -39.1010 -39.1010 -39.1010 -39.1010 -39.0991 -39.0991 -39.0961 -39.0961
   -39.0932 -39.0932 -39.0932 -39.0932 -39.0912 -39.0912 -39.0882 -39.0882
   -39.0711 -39.0711 -39.0703 -39.0703 -39.0635 -39.0635 -39.0632 -39.0632
   -39.0624 -39.0624 -39.0601 -39.0601 -39.0555 -39.0555 -39.0521 -39.0521
   -39.0090 -39.0090 -39.0067 -39.0067 -39.0012 -39.0012 -38.9988 -38.9988
   -38.9919 -38.9919 -38.9902 -38.9902 -38.9854 -38.9854 -38.9839 -38.9839
   -38.9837 -38.9837 -38.9822 -38.9822 -38.9773 -38.9773 -38.9756 -38.9756
   -38.9736 -38.9736 -38.9655 -38.9655 -38.9635 -38.9635 -38.9551 -38.9551
   -30.7736 -30.7736 -30.7664 -30.7664 -30.7297 -30.7297 -30.7205 -30.7205
   -30.7018 -30.7018 -30.6984 -30.6984 -30.6915 -30.6915 -30.6893 -30.6893
   -30.6408 -30.6408 -30.6336 -30.6336 -30.6234 -30.6234 -30.6167 -30.6167
   -30.6138 -30.6138 -30.6104 -30.6104 -30.5849 -30.5849 -30.5803 -30.5803
   -30.5732 -30.5732 -30.5693 -30.5693 -30.5417 -30.5417 -30.5385 -30.5385
   -30.5222 -30.5222 -30.5181 -30.5181 -30.5168 -30.5168 -30.5125 -30.5125
   -30.4659 -30.4659 -30.4638 -30.4638 -30.4382 -30.4382 -30.4324 -30.4324
   -30.4168 -30.4168 -30.4135 -30.4135 -30.4075 -30.4075 -30.3796 -30.3796
   -30.3628 -30.3628 -30.3625 -30.3625 -30.3613 -30.3613 -30.3603 -30.3603
   -30.3453 -30.3453 -30.3367 -30.3367 -30.3339 -30.3339 -30.3307 -30.3307
   -30.3220 -30.3220 -30.3177 -30.3177 -30.3131 -30.3131 -30.3129 -30.3129
   -30.3107 -30.3107 -30.3056 -30.3056 -30.2963 -30.2963 -30.2957 -30.2957
   -30.2945 -30.2945 -30.2924 -30.2924 -30.2924 -30.2924 -30.2897 -30.2897
   -30.2830 -30.2830 -30.2728 -30.2728 -30.2726 -30.2726 -30.2655 -30.2655
   -30.2633 -30.2633 -30.2448 -30.2448 -30.2429 -30.2429 -30.2385 -30.2385
   -30.2356 -30.2356 -30.2277 -30.2277 -30.2185 -30.2185 -30.2184 -30.2184
   -18.1259 -18.1259 -18.0822 -18.0822 -17.8572 -17.8572 -17.8281 -17.8281
   -17.4490 -17.4490 -17.4305 -17.4305 -17.4046 -17.4046 -17.3831 -17.3831
   -17.2607 -17.2607 -17.2359 -17.2359 -17.1666 -17.1666 -17.1396 -17.1396
   -16.9077 -16.9077 -16.8892 -16.8892 -16.8455 -16.8455 -16.8065 -16.8065
   -16.6102 -16.6102 -16.6020 -16.6020 -16.5246 -16.5246 -16.5242 -16.5242
   -16.5176 -16.5176 -16.5001 -16.5001 -16.4981 -16.4981 -16.4839 -16.4839
   -16.4562 -16.4562 -16.4333 -16.4333 -16.3987 -16.3987 -16.3853 -16.3853
   -16.3778 -16.3778 -16.3730 -16.3730 -16.2826 -16.2826 -16.2562 -16.2562
   -16.0894 -16.0894 -16.0749 -16.0749 -16.0292 -16.0292 -16.0091 -16.0091
   -15.9988 -15.9988 -15.9781 -15.9781 -15.7935 -15.7935 -15.7533 -15.7533
   -15.7058 -15.7058 -15.6957 -15.6957 -15.6120 -15.6120 -15.5823 -15.5823
   -15.5670 -15.5670 -15.5447 -15.5447 -15.5088 -15.5088 -15.4881 -15.4881
   -15.4455 -15.4455 -15.4405 -15.4405 -15.4146 -15.4146 -15.4073 -15.4073
   -15.4057 -15.4057 -15.4050 -15.4050 -15.4017 -15.4017 -15.3845 -15.3845
   -15.3095 -15.3095 -15.3083 -15.3083 -15.3071 -15.3071 -15.2829 -15.2829
   -15.2729 -15.2729 -15.2645 -15.2645 -15.2610 -15.2610 -15.1980 -15.1980
    -6.4679  -6.4679  -6.4484  -6.4484  -6.2207  -6.2207  -6.1964  -6.1964
    -5.9794  -5.9794  -5.9612  -5.9612  -5.5101  -5.5101  -5.4831  -5.4831
    -5.3993  -5.3993  -5.3723  -5.3723  -5.3586  -5.3586  -5.3326  -5.3326
    -5.3249  -5.3249  -5.2920  -5.2920  -5.2730  -5.2730  -5.2335  -5.2335
    -4.9798  -4.9798  -4.9612  -4.9612  -4.9249  -4.9249  -4.9123  -4.9123
    -4.8873  -4.8873  -4.8818  -4.8818  -4.8220  -4.8220  -4.8188  -4.8188
    -4.7876  -4.7876  -4.7233  -4.7233  -4.7195  -4.7195  -4.6933  -4.6933
    -4.6791  -4.6791  -4.6390  -4.6390  -4.6237  -4.6237  -4.5816  -4.5816
    -4.5604  -4.5604  -4.5570  -4.5570  -4.5457  -4.5457  -4.5286  -4.5286
    -4.4669  -4.4669  -4.4637  -4.4637  -4.3049  -4.3049  -4.2223  -4.2223
    -4.0699  -4.0699  -4.0366  -4.0366  -4.0287  -4.0287  -4.0073  -4.0073
    -3.9759  -3.9759  -3.9654  -3.9654  -3.9654  -3.9654  -3.9617  -3.9617
    -3.9410  -3.9410  -3.9338  -3.9338  -3.9083  -3.9083  -3.8038  -3.8038
    -3.7364  -3.7364  -3.7343  -3.7343  -3.7070  -3.7070  -3.6789  -3.6789
    -3.6770  -3.6770  -3.6711  -3.6711  -3.6579  -3.6579  -3.6490  -3.6490
    -3.6168  -3.6168  -3.5974  -3.5974  -3.5550  -3.5550  -3.4672  -3.4672
    -3.4638  -3.4638  -3.4522  -3.4522  -3.4460  -3.4460  -3.4292  -3.4292
    -3.4266  -3.4266  -3.4150  -3.4150  -3.4087  -3.4087  -3.3907  -3.3907
    -3.3876  -3.3876  -3.3370  -3.3370  -3.3262  -3.3262  -3.2814  -3.2814
    -3.2608  -3.2608  -3.2288  -3.2288  -3.2148  -3.2148  -3.1907  -3.1907
    -3.1231  -3.1231  -3.1166  -3.1166  -3.0801  -3.0801  -3.0730  -3.0730
    -3.0496  -3.0496  -3.0229  -3.0229  -3.0202  -3.0202  -3.0182  -3.0182
    -3.0155  -3.0155  -2.9907  -2.9907  -2.9270  -2.9270  -2.9044  -2.9044
    -2.8611  -2.8611  -2.8370  -2.8370  -2.8238  -2.8238  -2.8147  -2.8147
    -2.8068  -2.8068  -2.7654  -2.7654  -2.7623  -2.7623  -2.7328  -2.7328
    -2.7203  -2.7203  -2.7142  -2.7142  -2.6847  -2.6847  -2.6451  -2.6451
    -2.6400  -2.6400  -2.5852  -2.5852  -2.5648  -2.5648  -2.5346  -2.5346
    -2.5106  -2.5106  -2.4851  -2.4851  -2.4703  -2.4703  -2.4553  -2.4553
    -2.4050  -2.4050  -2.3834  -2.3834  -2.3766  -2.3766  -2.3524  -2.3524
    -2.3422  -2.3422  -2.3267  -2.3267  -2.3066  -2.3066  -2.2982  -2.2982
    -2.2556  -2.2556  -2.2333  -2.2333  -2.2218  -2.2218  -2.1890  -2.1890
    -2.1704  -2.1704  -2.1518  -2.1518  -2.0654  -2.0654  -2.0450  -2.0450
    -1.9807  -1.9807  -1.9223  -1.9223  -1.8935  -1.8935  -1.8891  -1.8891
    -1.8785  -1.8785  -1.8630  -1.8630  -1.8186  -1.8186  -1.7846  -1.7846
    -1.7471  -1.7471  -1.7352  -1.7352  -1.5441  -1.5441  -1.5288  -1.5288
    -1.4425  -1.4425  -1.4280  -1.4280  -1.3306  -1.3306  -1.3184  -1.3184
    -1.3139  -1.3139  -1.2986  -1.2986  -1.2637  -1.2637  -1.2459  -1.2459
    -1.2248  -1.2248  -1.2081  -1.2081  -1.1967  -1.1967  -1.1860  -1.1860
    -1.1309  -1.1309  -1.1242  -1.1242  -1.0944  -1.0944  -1.0887  -1.0887
    -1.0536  -1.0536  -1.0459  -1.0459  -0.9971  -0.9971  -0.9804  -0.9804
    -0.9752  -0.9752  -0.9644  -0.9644  -0.8808  -0.8808  -0.7269  -0.7269
    -0.6882  -0.6882  -0.6715  -0.6715  -0.6332  -0.6332  -0.5172  -0.5172
    -0.4934  -0.4934  -0.4768  -0.4768  -0.4717  -0.4717  -0.4481  -0.4481
    -0.4480  -0.4480  -0.3984  -0.3984  -0.3709  -0.3709  -0.3412  -0.3412
    -0.3157  -0.3157  -0.2864  -0.2864  -0.2478  -0.2478  -0.2419  -0.2419
    -0.2409  -0.2409  -0.2142  -0.2142  -0.2077  -0.2077  -0.1950  -0.1950
    -0.1607  -0.1607  -0.1297  -0.1297  -0.1038  -0.1038  -0.0519  -0.0519
    -0.0060  -0.0060   0.0864   0.0864   0.1180   0.1180   0.2223   0.2223
     3.0552   3.0552   3.1794   3.1794   3.1852   3.1852   3.3324   3.3324
     3.3726   3.3726   3.3777   3.3777   3.3927   3.3927   3.4695   3.4695
     3.5423   3.5423   3.6723   3.6723   3.7340   3.7340   3.7394   3.7394
     3.7527   3.7527   3.8086   3.8086   3.8643   3.8643   3.9706   3.9706
     4.0101   4.0101   4.0112   4.0112   4.1190   4.1190   4.1432   4.1432
     4.1755   4.1755   4.1910   4.1910   4.1941   4.1941   4.1942   4.1942
     4.1970   4.1970   4.3212   4.3212   4.3530   4.3530   4.3870   4.3870
     4.4382   4.4382   4.4907   4.4907   4.5145   4.5145   4.5385   4.5385
     4.5758   4.5758   4.5864   4.5864   4.5962   4.5962   4.5981   4.5981
     4.6031   4.6031   4.6169   4.6169   4.6214   4.6214   4.6789   4.6789
     4.6918   4.6918   4.7015   4.7015   4.7051   4.7051   4.7195   4.7195
     4.7314   4.7314   4.7868   4.7868   4.7881   4.7881   4.8080   4.8080
     4.8333   4.8333   4.8534   4.8534   4.8629   4.8629   4.9037   4.9037
     4.9197   4.9197   4.9319   4.9319   4.9479   4.9479   4.9481   4.9481
     4.9648   4.9648   4.9836   4.9836   4.9880   4.9880   4.9934   4.9934
     5.0491   5.0491   5.0746   5.0746   5.1012   5.1012   5.1168   5.1168
     5.1331   5.1331   5.1369   5.1369   5.1581   5.1581   5.1660   5.1660
     5.1770   5.1770   5.1855   5.1855   5.2291   5.2291   5.2734   5.2734
     5.2851   5.2851   5.3382   5.3382   5.3626   5.3626   5.3865   5.3865
     5.4039   5.4039   5.4085   5.4085   5.4697   5.4697   5.4711   5.4711
     5.4846   5.4846   5.5119   5.5119   5.5238   5.5238   5.5562   5.5562
     5.5706   5.5706   5.5846   5.5846   5.6070   5.6070   5.6620   5.6620
     5.7120   5.7120   5.7285   5.7285   5.7827   5.7827   5.8129   5.8129
     5.8174   5.8174   5.8394   5.8394   5.8454   5.8455   5.9042   5.9043

          k = 0.0000 0.2365 0.0000 (455713 PWs)   bands (ev):

   -66.0856 -66.0856 -66.0855 -66.0855 -66.0855 -66.0855 -66.0855 -66.0855
   -66.0850 -66.0850 -66.0850 -66.0850 -66.0850 -66.0850 -66.0849 -66.0849
   -66.0482 -66.0482 -66.0481 -66.0481 -66.0481 -66.0481 -66.0481 -66.0481
   -66.0476 -66.0476 -66.0476 -66.0476 -66.0476 -66.0476 -66.0475 -66.0475
   -65.9203 -65.9203 -65.9202 -65.9202 -65.9197 -65.9197 -65.9196 -65.9196
   -65.9186 -65.9186 -65.9185 -65.9185 -65.9183 -65.9183 -65.9182 -65.9182
   -65.9180 -65.9180 -65.9180 -65.9180 -65.9177 -65.9177 -65.9177 -65.9177
   -65.9166 -65.9166 -65.9166 -65.9166 -65.9160 -65.9160 -65.9160 -65.9160
   -39.1008 -39.1008 -39.1006 -39.1006 -39.0992 -39.0992 -39.0966 -39.0966
   -39.0929 -39.0929 -39.0927 -39.0927 -39.0914 -39.0914 -39.0887 -39.0887
   -39.0704 -39.0704 -39.0695 -39.0694 -39.0643 -39.0643 -39.0625 -39.0625
   -39.0616 -39.0616 -39.0613 -39.0613 -39.0563 -39.0563 -39.0533 -39.0532
   -39.0087 -39.0086 -39.0068 -39.0068 -39.0009 -39.0008 -38.9990 -38.9990
   -38.9912 -38.9911 -38.9896 -38.9896 -38.9859 -38.9859 -38.9844 -38.9844
   -38.9831 -38.9831 -38.9816 -38.9816 -38.9778 -38.9778 -38.9763 -38.9763
   -38.9726 -38.9726 -38.9645 -38.9644 -38.9644 -38.9644 -38.9561 -38.9560
   -30.7690 -30.7685 -30.7617 -30.7611 -30.7332 -30.7323 -30.7242 -30.7233
   -30.6981 -30.6979 -30.6940 -30.6938 -30.6878 -30.6877 -30.6843 -30.6843
   -30.6506 -30.6501 -30.6436 -30.6433 -30.6351 -30.6350 -30.6281 -30.6281
   -30.6112 -30.6107 -30.6080 -30.6076 -30.5882 -30.5876 -30.5833 -30.5824
   -30.5748 -30.5747 -30.5712 -30.5710 -30.5439 -30.5425 -30.5378 -30.5359
   -30.5286 -30.5282 -30.5245 -30.5245 -30.5064 -30.5058 -30.5024 -30.5019
   -30.4480 -30.4470 -30.4415 -30.4412 -30.4386 -30.4377 -30.4330 -30.4328
   -30.4272 -30.4257 -30.4206 -30.4202 -30.4036 -30.4031 -30.3791 -30.3775
   -30.3665 -30.3645 -30.3633 -30.3628 -30.3623 -30.3611 -30.3609 -30.3594
   -30.3481 -30.3471 -30.3371 -30.3346 -30.3345 -30.3335 -30.3305 -30.3292
   -30.3205 -30.3191 -30.3181 -30.3173 -30.3146 -30.3144 -30.3142 -30.3139
   -30.3084 -30.3078 -30.3062 -30.3057 -30.2984 -30.2980 -30.2976 -30.2975
   -30.2954 -30.2951 -30.2950 -30.2941 -30.2932 -30.2918 -30.2916 -30.2912
   -30.2854 -30.2853 -30.2756 -30.2747 -30.2722 -30.2717 -30.2666 -30.2656
   -30.2609 -30.2600 -30.2426 -30.2419 -30.2414 -30.2411 -30.2398 -30.2394
   -30.2358 -30.2352 -30.2286 -30.2285 -30.2201 -30.2198 -30.2197 -30.2194
   -18.0999 -18.0988 -18.0570 -18.0558 -17.8803 -17.8788 -17.8492 -17.8477
   -17.4330 -17.4326 -17.4111 -17.4110 -17.3886 -17.3884 -17.3638 -17.3635
   -17.2810 -17.2805 -17.2544 -17.2539 -17.1974 -17.1968 -17.1679 -17.1674
   -16.9325 -16.9298 -16.9107 -16.9079 -16.9014 -16.8995 -16.8633 -16.8613
   -16.6014 -16.6009 -16.5928 -16.5923 -16.5254 -16.5243 -16.5193 -16.5190
   -16.5167 -16.5123 -16.5118 -16.5114 -16.5006 -16.4992 -16.4938 -16.4879
   -16.4797 -16.4770 -16.4620 -16.4596 -16.4353 -16.4325 -16.4129 -16.4099
   -16.3405 -16.3386 -16.3267 -16.3244 -16.2040 -16.2037 -16.1772 -16.1765
   -16.0206 -16.0206 -16.0046 -16.0045 -15.9864 -15.9860 -15.9765 -15.9754
   -15.9681 -15.9675 -15.9487 -15.9486 -15.7820 -15.7810 -15.7459 -15.7456
   -15.7209 -15.7181 -15.7053 -15.7025 -15.6467 -15.6459 -15.6244 -15.6243
   -15.5969 -15.5969 -15.5822 -15.5821 -15.5464 -15.5448 -15.4894 -15.4891
   -15.4521 -15.4508 -15.4410 -15.4406 -15.4369 -15.4366 -15.4366 -15.4366
   -15.4099 -15.4098 -15.4061 -15.4061 -15.3891 -15.3879 -15.3860 -15.3853
   -15.3048 -15.3048 -15.3043 -15.3041 -15.3026 -15.3025 -15.2827 -15.2820
   -15.2743 -15.2734 -15.2691 -15.2691 -15.2661 -15.2660 -15.2175 -15.2175
    -6.4235  -6.4235  -6.4036  -6.4036  -6.1579  -6.1558  -6.1329  -6.1305
    -6.0236  -6.0206  -6.0040  -6.0007  -5.4269  -5.4268  -5.3984  -5.3982
    -5.3634  -5.3630  -5.3344  -5.3337  -5.3210  -5.3192  -5.2990  -5.2982
    -5.2923  -5.2906  -5.2640  -5.2633  -5.2610  -5.2530  -5.2487  -5.2481
    -5.2171  -5.2087  -5.2087  -5.2081  -4.9622  -4.9616  -4.9316  -4.9281
    -4.9170  -4.9165  -4.8934  -4.8919  -4.8698  -4.8667  -4.8386  -4.8375
    -4.8325  -4.8310  -4.7776  -4.7760  -4.7647  -4.7447  -4.7394  -4.7351
    -4.7246  -4.7215  -4.6593  -4.6453  -4.6001  -4.5993  -4.5905  -4.5895
    -4.5345  -4.5339  -4.5193  -4.5184  -4.4805  -4.4793  -4.4584  -4.4576
    -4.4456  -4.4242  -4.4065  -4.3817  -4.3074  -4.2968  -4.2475  -4.2389
    -4.0934  -4.0912  -4.0705  -4.0704  -4.0624  -4.0593  -4.0304  -4.0304
    -4.0243  -4.0220  -3.9968  -3.9956  -3.9945  -3.9924  -3.9863  -3.9847
    -3.9613  -3.9604  -3.8151  -3.8089  -3.7998  -3.7996  -3.7670  -3.7593
    -3.7225  -3.7139  -3.7083  -3.7078  -3.6925  -3.6911  -3.6877  -3.6865
    -3.6769  -3.6765  -3.6762  -3.6761  -3.6577  -3.6574  -3.6422  -3.6386
    -3.6278  -3.6271  -3.6028  -3.6023  -3.6020  -3.5920  -3.5833  -3.5818
    -3.5387  -3.5381  -3.5345  -3.5341  -3.4701  -3.4701  -3.4418  -3.4404
    -3.4387  -3.4380  -3.4291  -3.4289  -3.4194  -3.4188  -3.4135  -3.4134
    -3.3944  -3.3943  -3.3854  -3.3822  -3.3590  -3.3569  -3.3121  -3.3115
    -3.2947  -3.2939  -3.2633  -3.2633  -3.2481  -3.2471  -3.2251  -3.2247
    -3.1841  -3.1837  -3.1139  -3.1138  -3.0810  -3.0786  -3.0771  -3.0770
    -3.0280  -3.0261  -3.0225  -3.0224  -3.0030  -3.0016  -2.9582  -2.9558
    -2.9482  -2.9449  -2.9330  -2.9309  -2.9307  -2.9307  -2.8998  -2.8920
    -2.8178  -2.8077  -2.8065  -2.8049  -2.7976  -2.7893  -2.7761  -2.7759
    -2.7427  -2.7391  -2.7379  -2.7378  -2.7135  -2.7133  -2.6891  -2.6889
    -2.6850  -2.6838  -2.6613  -2.6611  -2.6404  -2.6391  -2.6180  -2.6179
    -2.5895  -2.5874  -2.5863  -2.5862  -2.5747  -2.5747  -2.5662  -2.5637
    -2.5011  -2.5008  -2.4833  -2.4826  -2.4758  -2.4692  -2.4520  -2.4463
    -2.4356  -2.4349  -2.4346  -2.4273  -2.3684  -2.3667  -2.3649  -2.3639
    -2.2853  -2.2833  -2.2756  -2.2700  -2.2618  -2.2583  -2.2450  -2.2337
    -2.2295  -2.2253  -2.2234  -2.2167  -2.2030  -2.1989  -2.1732  -2.1710
    -2.1435  -2.1290  -2.1089  -2.1089  -2.0723  -2.0692  -1.9857  -1.9851
    -1.9705  -1.9697  -1.9695  -1.9649  -1.9422  -1.9417  -1.9359  -1.9311
    -1.8494  -1.8336  -1.8186  -1.8166  -1.7891  -1.7887  -1.7502  -1.7285
    -1.7141  -1.7091  -1.6725  -1.6722  -1.6522  -1.6514  -1.6270  -1.6265
    -1.5375  -1.5279  -1.4361  -1.4240  -1.4181  -1.4179  -1.3090  -1.3089
    -1.2982  -1.2977  -1.2698  -1.2678  -1.2671  -1.2670  -1.2424  -1.2416
    -1.2314  -1.2314  -1.1835  -1.1830  -1.1630  -1.1624  -1.1406  -1.1273
    -1.1127  -1.1122  -1.1053  -1.1005  -1.0988  -1.0922  -1.0774  -1.0768
    -1.0655  -1.0602  -1.0009  -0.9942  -0.9905  -0.9892  -0.9631  -0.9606
    -0.9539  -0.9527  -0.9404  -0.9363  -0.8327  -0.8299  -0.7413  -0.7403
    -0.7069  -0.7060  -0.6696  -0.6691  -0.6604  -0.6600  -0.5676  -0.5675
    -0.5449  -0.5447  -0.5261  -0.5258  -0.5223  -0.5223  -0.4911  -0.4901
    -0.4845  -0.4843  -0.4689  -0.4685  -0.3588  -0.3584  -0.3563  -0.3532
    -0.3418  -0.3417  -0.2995  -0.2995  -0.2740  -0.2705  -0.2586  -0.2583
    -0.2390  -0.2388  -0.2344  -0.2335  -0.2301  -0.2297  -0.2119  -0.2117
    -0.1376  -0.1368  -0.1006  -0.1006  -0.0841  -0.0837  -0.0417  -0.0407
    -0.0225  -0.0215   0.0671   0.0673   0.0956   0.0959   0.1818   0.1822
     3.0782   3.0784   3.2072   3.2078   3.2251   3.2326   3.3845   3.3877
     3.4060   3.4085   3.4133   3.4168   3.4206   3.4234   3.4259   3.4277
     3.5021   3.5076   3.6307   3.6308   3.7071   3.7194   3.7524   3.7530
     3.7711   3.7714   3.8347   3.8421   3.8982   3.9029   3.9053   3.9071
     3.9334   3.9365   4.0672   4.0676   4.0716   4.0765   4.0944   4.0974
     4.1073   4.1091   4.1138   4.1140   4.1315   4.1330   4.1779   4.1807
     4.2224   4.2310   4.3476   4.3485   4.3684   4.3730   4.3816   4.3842
     4.4254   4.4256   4.4642   4.4765   4.4914   4.4928   4.5260   4.5309
     4.5391   4.5404   4.5600   4.5693   4.5706   4.5719   4.6142   4.6153
     4.6426   4.6598   4.6737   4.6753   4.6758   4.6798   4.6829   4.6841
     4.6948   4.6964   4.7020   4.7043   4.7153   4.7157   4.7270   4.7283
     4.7290   4.7402   4.8188   4.8225   4.8256   4.8327   4.8349   4.8362
     4.8501   4.8514   4.8536   4.8786   4.8893   4.8933   4.8998   4.9041
     4.9183   4.9206   4.9240   4.9252   4.9343   4.9363   4.9531   4.9552
     4.9645   4.9664   4.9846   4.9906   4.9921   4.9951   5.0104   5.0209
     5.0221   5.0226   5.0737   5.0757   5.0841   5.0855   5.1238   5.1243
     5.1262   5.1284   5.1491   5.1503   5.1511   5.1515   5.1544   5.1573
     5.1575   5.1685   5.2231   5.2243   5.2567   5.2631   5.2660   5.2727
     5.2942   5.3020   5.3329   5.3335   5.3431   5.3477   5.3684   5.3718
     5.3758   5.3766   5.4173   5.4209   5.4547   5.4549   5.4683   5.4689
     5.4953   5.4962   5.5242   5.5269   5.5281   5.5330   5.5362   5.5384
     5.5870   5.5897   5.5901   5.5937   5.6095   5.6167   5.6424   5.6440
     5.7385   5.7390   5.7907   5.8048   5.8158   5.8188   5.8217   5.8249
     5.8296   5.8345   5.8688   5.8718   5.8838   5.8928   5.8962   5.8984

          k = 0.0000 0.2365-0.4545 (455636 PWs)   bands (ev):

   -66.0856 -66.0856 -66.0855 -66.0855 -66.0855 -66.0855 -66.0855 -66.0855
   -66.0850 -66.0850 -66.0850 -66.0850 -66.0850 -66.0850 -66.0849 -66.0849
   -66.0482 -66.0482 -66.0481 -66.0481 -66.0481 -66.0481 -66.0481 -66.0481
   -66.0476 -66.0476 -66.0476 -66.0476 -66.0476 -66.0476 -66.0475 -66.0475
   -65.9203 -65.9203 -65.9202 -65.9202 -65.9197 -65.9197 -65.9196 -65.9196
   -65.9186 -65.9186 -65.9185 -65.9185 -65.9183 -65.9183 -65.9182 -65.9182
   -65.9180 -65.9180 -65.9180 -65.9180 -65.9177 -65.9177 -65.9177 -65.9177
   -65.9166 -65.9166 -65.9166 -65.9166 -65.9160 -65.9160 -65.9160 -65.9160
   -39.1008 -39.1008 -39.1006 -39.1006 -39.0992 -39.0992 -39.0966 -39.0966
   -39.0929 -39.0929 -39.0927 -39.0927 -39.0914 -39.0914 -39.0887 -39.0887
   -39.0704 -39.0704 -39.0695 -39.0694 -39.0643 -39.0643 -39.0625 -39.0625
   -39.0616 -39.0616 -39.0613 -39.0613 -39.0563 -39.0563 -39.0533 -39.0532
   -39.0087 -39.0086 -39.0068 -39.0068 -39.0009 -39.0008 -38.9990 -38.9990
   -38.9911 -38.9911 -38.9896 -38.9896 -38.9859 -38.9859 -38.9844 -38.9844
   -38.9831 -38.9831 -38.9816 -38.9816 -38.9778 -38.9778 -38.9763 -38.9763
   -38.9726 -38.9726 -38.9645 -38.9644 -38.9644 -38.9644 -38.9561 -38.9560
   -30.7690 -30.7685 -30.7617 -30.7611 -30.7332 -30.7323 -30.7242 -30.7233
   -30.6981 -30.6979 -30.6940 -30.6938 -30.6878 -30.6877 -30.6843 -30.6843
   -30.6506 -30.6501 -30.6436 -30.6433 -30.6351 -30.6350 -30.6281 -30.6281
   -30.6112 -30.6107 -30.6080 -30.6076 -30.5882 -30.5876 -30.5833 -30.5824
   -30.5748 -30.5747 -30.5712 -30.5710 -30.5439 -30.5425 -30.5378 -30.5359
   -30.5286 -30.5282 -30.5245 -30.5245 -30.5064 -30.5058 -30.5024 -30.5019
   -30.4480 -30.4470 -30.4415 -30.4412 -30.4386 -30.4377 -30.4330 -30.4328
   -30.4272 -30.4257 -30.4206 -30.4202 -30.4036 -30.4031 -30.3791 -30.3775
   -30.3665 -30.3645 -30.3633 -30.3628 -30.3623 -30.3611 -30.3609 -30.3594
   -30.3481 -30.3471 -30.3370 -30.3346 -30.3345 -30.3335 -30.3305 -30.3292
   -30.3205 -30.3191 -30.3181 -30.3173 -30.3146 -30.3144 -30.3142 -30.3139
   -30.3084 -30.3078 -30.3062 -30.3057 -30.2984 -30.2980 -30.2976 -30.2975
   -30.2954 -30.2951 -30.2950 -30.2941 -30.2932 -30.2918 -30.2916 -30.2912
   -30.2854 -30.2854 -30.2756 -30.2747 -30.2722 -30.2717 -30.2666 -30.2656
   -30.2609 -30.2600 -30.2426 -30.2419 -30.2414 -30.2411 -30.2398 -30.2394
   -30.2358 -30.2352 -30.2286 -30.2285 -30.2201 -30.2198 -30.2197 -30.2194
   -18.0999 -18.0988 -18.0570 -18.0558 -17.8803 -17.8788 -17.8492 -17.8477
   -17.4330 -17.4326 -17.4111 -17.4110 -17.3886 -17.3884 -17.3638 -17.3635
   -17.2810 -17.2805 -17.2544 -17.2539 -17.1974 -17.1968 -17.1679 -17.1674
   -16.9325 -16.9298 -16.9107 -16.9079 -16.9014 -16.8995 -16.8633 -16.8613
   -16.6014 -16.6009 -16.5928 -16.5923 -16.5254 -16.5243 -16.5193 -16.5190
   -16.5167 -16.5123 -16.5118 -16.5114 -16.5006 -16.4992 -16.4938 -16.4879
   -16.4797 -16.4770 -16.4620 -16.4596 -16.4353 -16.4325 -16.4129 -16.4099
   -16.3405 -16.3386 -16.3267 -16.3244 -16.2040 -16.2037 -16.1772 -16.1765
   -16.0206 -16.0206 -16.0046 -16.0045 -15.9864 -15.9860 -15.9765 -15.9754
   -15.9681 -15.9675 -15.9487 -15.9486 -15.7820 -15.7810 -15.7459 -15.7456
   -15.7209 -15.7181 -15.7053 -15.7025 -15.6467 -15.6459 -15.6244 -15.6243
   -15.5969 -15.5969 -15.5822 -15.5821 -15.5464 -15.5448 -15.4894 -15.4891
   -15.4521 -15.4508 -15.4410 -15.4406 -15.4369 -15.4366 -15.4366 -15.4366
   -15.4099 -15.4098 -15.4061 -15.4061 -15.3891 -15.3879 -15.3860 -15.3853
   -15.3048 -15.3048 -15.3043 -15.3041 -15.3026 -15.3025 -15.2827 -15.2820
   -15.2743 -15.2734 -15.2691 -15.2691 -15.2661 -15.2660 -15.2175 -15.2175
    -6.4235  -6.4235  -6.4036  -6.4036  -6.1579  -6.1558  -6.1329  -6.1305
    -6.0236  -6.0206  -6.0040  -6.0007  -5.4269  -5.4268  -5.3984  -5.3982
    -5.3634  -5.3630  -5.3344  -5.3337  -5.3210  -5.3192  -5.2990  -5.2982
    -5.2923  -5.2906  -5.2640  -5.2633  -5.2610  -5.2530  -5.2487  -5.2481
    -5.2171  -5.2087  -5.2087  -5.2081  -4.9622  -4.9616  -4.9316  -4.9281
    -4.9170  -4.9165  -4.8934  -4.8919  -4.8698  -4.8667  -4.8386  -4.8375
    -4.8325  -4.8310  -4.7776  -4.7760  -4.7647  -4.7447  -4.7394  -4.7351
    -4.7246  -4.7215  -4.6593  -4.6453  -4.6001  -4.5993  -4.5905  -4.5895
    -4.5345  -4.5339  -4.5193  -4.5184  -4.4805  -4.4793  -4.4584  -4.4576
    -4.4456  -4.4242  -4.4065  -4.3817  -4.3074  -4.2968  -4.2475  -4.2389
    -4.0934  -4.0912  -4.0705  -4.0704  -4.0624  -4.0593  -4.0304  -4.0304
    -4.0243  -4.0220  -3.9968  -3.9956  -3.9945  -3.9924  -3.9863  -3.9847
    -3.9613  -3.9604  -3.8151  -3.8089  -3.7998  -3.7996  -3.7670  -3.7593
    -3.7225  -3.7139  -3.7083  -3.7078  -3.6925  -3.6911  -3.6877  -3.6865
    -3.6769  -3.6765  -3.6762  -3.6761  -3.6577  -3.6574  -3.6422  -3.6386
    -3.6278  -3.6271  -3.6028  -3.6023  -3.6020  -3.5920  -3.5833  -3.5818
    -3.5387  -3.5381  -3.5345  -3.5341  -3.4701  -3.4701  -3.4418  -3.4404
    -3.4387  -3.4380  -3.4291  -3.4289  -3.4194  -3.4188  -3.4135  -3.4134
    -3.3944  -3.3943  -3.3854  -3.3822  -3.3590  -3.3569  -3.3121  -3.3115
    -3.2947  -3.2939  -3.2633  -3.2633  -3.2481  -3.2471  -3.2251  -3.2247
    -3.1841  -3.1837  -3.1139  -3.1138  -3.0810  -3.0786  -3.0771  -3.0770
    -3.0280  -3.0261  -3.0225  -3.0224  -3.0030  -3.0016  -2.9582  -2.9558
    -2.9482  -2.9449  -2.9330  -2.9309  -2.9307  -2.9307  -2.8998  -2.8920
    -2.8178  -2.8077  -2.8065  -2.8049  -2.7976  -2.7893  -2.7761  -2.7759
    -2.7427  -2.7391  -2.7379  -2.7378  -2.7135  -2.7133  -2.6891  -2.6889
    -2.6850  -2.6838  -2.6613  -2.6611  -2.6404  -2.6391  -2.6180  -2.6179
    -2.5895  -2.5874  -2.5863  -2.5862  -2.5747  -2.5747  -2.5662  -2.5637
    -2.5011  -2.5008  -2.4833  -2.4826  -2.4758  -2.4692  -2.4520  -2.4463
    -2.4356  -2.4349  -2.4346  -2.4273  -2.3684  -2.3667  -2.3649  -2.3639
    -2.2853  -2.2833  -2.2756  -2.2700  -2.2618  -2.2583  -2.2450  -2.2337
    -2.2295  -2.2253  -2.2234  -2.2167  -2.2030  -2.1989  -2.1732  -2.1710
    -2.1435  -2.1290  -2.1089  -2.1089  -2.0723  -2.0692  -1.9857  -1.9851
    -1.9705  -1.9697  -1.9695  -1.9649  -1.9422  -1.9417  -1.9359  -1.9311
    -1.8494  -1.8336  -1.8186  -1.8166  -1.7891  -1.7887  -1.7502  -1.7285
    -1.7141  -1.7091  -1.6725  -1.6722  -1.6522  -1.6514  -1.6270  -1.6265
    -1.5375  -1.5279  -1.4361  -1.4240  -1.4181  -1.4179  -1.3090  -1.3089
    -1.2982  -1.2977  -1.2698  -1.2678  -1.2671  -1.2670  -1.2424  -1.2416
    -1.2314  -1.2314  -1.1835  -1.1830  -1.1630  -1.1624  -1.1406  -1.1273
    -1.1127  -1.1122  -1.1053  -1.1005  -1.0988  -1.0922  -1.0774  -1.0768
    -1.0655  -1.0602  -1.0009  -0.9942  -0.9905  -0.9892  -0.9631  -0.9606
    -0.9539  -0.9527  -0.9404  -0.9363  -0.8327  -0.8299  -0.7413  -0.7403
    -0.7069  -0.7060  -0.6696  -0.6691  -0.6604  -0.6600  -0.5676  -0.5675
    -0.5449  -0.5447  -0.5261  -0.5258  -0.5223  -0.5223  -0.4911  -0.4901
    -0.4845  -0.4843  -0.4689  -0.4685  -0.3588  -0.3584  -0.3563  -0.3532
    -0.3418  -0.3417  -0.2995  -0.2995  -0.2740  -0.2705  -0.2586  -0.2583
    -0.2390  -0.2388  -0.2344  -0.2335  -0.2301  -0.2297  -0.2119  -0.2117
    -0.1376  -0.1368  -0.1006  -0.1006  -0.0841  -0.0837  -0.0417  -0.0407
    -0.0225  -0.0215   0.0671   0.0673   0.0956   0.0959   0.1818   0.1822
     3.0782   3.0784   3.2134   3.2140   3.2250   3.2326   3.3845   3.3877
     3.4062   3.4086   3.4133   3.4168   3.4206   3.4234   3.4262   3.4280
     3.5028   3.5083   3.6340   3.6341   3.7027   3.7141   3.7567   3.7573
     3.7754   3.7758   3.8347   3.8407   3.8987   3.9035   3.9061   3.9077
     3.9345   3.9376   4.0688   4.0692   4.0696   4.0739   4.0930   4.0959
     4.1057   4.1075   4.1153   4.1155   4.1346   4.1361   4.1753   4.1780
     4.2226   4.2313   4.3486   4.3494   4.3629   4.3677   4.3734   4.3766
     4.4268   4.4269   4.4641   4.4767   4.4907   4.4931   4.5254   4.5303
     4.5348   4.5360   4.5590   4.5644   4.5667   4.5698   4.6139   4.6150
     4.6422   4.6599   4.6725   4.6737   4.6754   4.6766   4.6828   4.6842
     4.6899   4.6912   4.7017   4.7041   4.7140   4.7143   4.7254   4.7266
     4.7278   4.7382   4.8191   4.8221   4.8252   4.8279   4.8315   4.8348
     4.8501   4.8501   4.8522   4.8786   4.8892   4.8932   4.8998   4.9041
     4.9178   4.9205   4.9234   4.9245   4.9319   4.9340   4.9514   4.9534
     4.9637   4.9656   4.9843   4.9900   4.9903   4.9927   5.0096   5.0191
     5.0209   5.0213   5.0683   5.0701   5.0818   5.0833   5.1237   5.1243
     5.1261   5.1282   5.1463   5.1475   5.1508   5.1511   5.1537   5.1569
     5.1575   5.1685   5.2204   5.2218   5.2557   5.2629   5.2644   5.2708
     5.2916   5.3005   5.3327   5.3332   5.3430   5.3476   5.3666   5.3714
     5.3750   5.3755   5.4172   5.4209   5.4530   5.4533   5.4675   5.4677
     5.4897   5.4905   5.5210   5.5245   5.5249   5.5310   5.5358   5.5379
     5.5787   5.5817   5.5892   5.5932   5.6017   5.6089   5.6413   5.6430
     5.7363   5.7365   5.7899   5.8044   5.8155   5.8185   5.8218   5.8242
     5.8298   5.8338   5.8682   5.8711   5.8832   5.8923   5.8961   5.8982

          k = 0.0000 0.4730 0.0000 (455674 PWs)   bands (ev):

   -66.0856 -66.0856 -66.0856 -66.0856 -66.0855 -66.0855 -66.0855 -66.0855
   -66.0850 -66.0850 -66.0850 -66.0850 -66.0850 -66.0850 -66.0849 -66.0849
   -66.0482 -66.0482 -66.0482 -66.0482 -66.0481 -66.0481 -66.0481 -66.0481
   -66.0476 -66.0476 -66.0476 -66.0476 -66.0476 -66.0476 -66.0475 -66.0475
   -65.9203 -65.9203 -65.9202 -65.9202 -65.9197 -65.9197 -65.9196 -65.9196
   -65.9186 -65.9186 -65.9185 -65.9185 -65.9183 -65.9183 -65.9182 -65.9182
   -65.9180 -65.9180 -65.9180 -65.9180 -65.9177 -65.9177 -65.9177 -65.9177
   -65.9166 -65.9166 -65.9166 -65.9166 -65.9160 -65.9160 -65.9160 -65.9160
   -39.1002 -39.1002 -39.0997 -39.0996 -39.0994 -39.0994 -39.0979 -39.0979
   -39.0924 -39.0924 -39.0918 -39.0918 -39.0915 -39.0915 -39.0900 -39.0900
   -39.0686 -39.0686 -39.0672 -39.0672 -39.0663 -39.0663 -39.0641 -39.0641
   -39.0607 -39.0607 -39.0593 -39.0593 -39.0583 -39.0583 -39.0561 -39.0561
   -39.0080 -39.0079 -39.0073 -39.0072 -39.0002 -39.0001 -38.9995 -38.9994
   -38.9893 -38.9892 -38.9881 -38.9881 -38.9873 -38.9872 -38.9861 -38.9861
   -38.9812 -38.9812 -38.9801 -38.9801 -38.9792 -38.9792 -38.9780 -38.9780
   -38.9700 -38.9699 -38.9669 -38.9668 -38.9618 -38.9617 -38.9586 -38.9585
   -30.7569 -30.7558 -30.7491 -30.7480 -30.7429 -30.7417 -30.7345 -30.7332
   -30.6868 -30.6865 -30.6814 -30.6811 -30.6758 -30.6757 -30.6704 -30.6704
   -30.6695 -30.6690 -30.6631 -30.6627 -30.6567 -30.6566 -30.6501 -30.6501
   -30.6041 -30.6035 -30.6006 -30.6003 -30.5954 -30.5953 -30.5907 -30.5902
   -30.5751 -30.5747 -30.5720 -30.5718 -30.5665 -30.5655 -30.5628 -30.5613
   -30.5008 -30.5001 -30.4955 -30.4954 -30.4791 -30.4782 -30.4728 -30.4723
   -30.4713 -30.4703 -30.4651 -30.4648 -30.4500 -30.4487 -30.4426 -30.4420
   -30.4017 -30.3989 -30.3945 -30.3944 -30.3901 -30.3888 -30.3749 -30.3732
   -30.3707 -30.3685 -30.3676 -30.3674 -30.3655 -30.3644 -30.3601 -30.3575
   -30.3541 -30.3522 -30.3488 -30.3453 -30.3350 -30.3338 -30.3335 -30.3320
   -30.3229 -30.3223 -30.3174 -30.3170 -30.3135 -30.3121 -30.3086 -30.3076
   -30.3076 -30.3074 -30.3043 -30.3034 -30.3024 -30.3016 -30.3014 -30.3012
   -30.3012 -30.2994 -30.2962 -30.2956 -30.2943 -30.2942 -30.2906 -30.2905
   -30.2883 -30.2865 -30.2817 -30.2801 -30.2707 -30.2696 -30.2685 -30.2672
   -30.2533 -30.2521 -30.2447 -30.2438 -30.2389 -30.2378 -30.2365 -30.2365
   -30.2363 -30.2355 -30.2315 -30.2313 -30.2223 -30.2219 -30.2217 -30.2213
   -18.0301 -18.0281 -17.9899 -17.9879 -17.9448 -17.9426 -17.9090 -17.9068
   -17.3892 -17.3885 -17.3601 -17.3599 -17.3419 -17.3416 -17.3313 -17.3305
   -17.3100 -17.3093 -17.3015 -17.3008 -17.2690 -17.2682 -17.2357 -17.2350
   -16.9695 -16.9662 -16.9659 -16.9630 -16.9422 -16.9387 -16.9328 -16.9297
   -16.5745 -16.5732 -16.5642 -16.5631 -16.5299 -16.5275 -16.5248 -16.5242
   -16.5240 -16.5203 -16.5168 -16.5147 -16.5042 -16.5033 -16.5027 -16.5025
   -16.5017 -16.4984 -16.4952 -16.4940 -16.4783 -16.4760 -16.4639 -16.4613
   -16.2448 -16.2419 -16.2347 -16.2318 -16.1684 -16.1674 -16.1543 -16.1528
   -15.8845 -15.8843 -15.8800 -15.8791 -15.8701 -15.8694 -15.8500 -15.8490
   -15.8302 -15.8295 -15.8181 -15.8179 -15.7641 -15.7579 -15.7427 -15.7414
   -15.7409 -15.7393 -15.7380 -15.7324 -15.7306 -15.7298 -15.7210 -15.7204
   -15.6907 -15.6901 -15.6833 -15.6829 -15.6540 -15.6526 -15.5997 -15.5982
   -15.4756 -15.4755 -15.4593 -15.4592 -15.4311 -15.4307 -15.4279 -15.4277
   -15.4198 -15.4196 -15.4165 -15.4164 -15.3799 -15.3784 -15.3784 -15.3767
   -15.2936 -15.2935 -15.2913 -15.2913 -15.2894 -15.2891 -15.2816 -15.2806
   -15.2804 -15.2803 -15.2779 -15.2778 -15.2759 -15.2745 -15.2552 -15.2552
    -6.3054  -6.3052  -6.2844  -6.2842  -6.1587  -6.1573  -6.1375  -6.1360
    -5.9473  -5.9454  -5.9190  -5.9172  -5.6415  -5.6397  -5.6075  -5.6056
    -5.2849  -5.2837  -5.2555  -5.2541  -5.2479  -5.2464  -5.2317  -5.2292
    -5.2135  -5.2121  -5.1982  -5.1974  -5.1956  -5.1946  -5.1945  -5.1925
    -5.1635  -5.1625  -5.1542  -5.1528  -5.0210  -5.0153  -5.0071  -5.0054
    -4.9752  -4.9694  -4.9677  -4.9657  -4.9262  -4.9253  -4.9148  -4.9115
    -4.9102  -4.9086  -4.8844  -4.8834  -4.8715  -4.8706  -4.8661  -4.8587
    -4.7260  -4.7194  -4.7049  -4.6991  -4.6321  -4.6238  -4.6083  -4.5998
    -4.5526  -4.5523  -4.5094  -4.5093  -4.4889  -4.4864  -4.4247  -4.4210
    -4.4196  -4.4184  -4.3585  -4.3546  -4.2839  -4.2798  -4.2340  -4.2275
    -4.2177  -4.2146  -4.1602  -4.1536  -4.0660  -4.0658  -4.0602  -4.0516
    -4.0431  -4.0423  -4.0272  -4.0272  -4.0061  -4.0060  -3.9802  -3.9737
    -3.9514  -3.9411  -3.8615  -3.8553  -3.8351  -3.8272  -3.7901  -3.7895
    -3.7711  -3.7703  -3.7421  -3.7398  -3.6838  -3.6835  -3.6779  -3.6774
    -3.6666  -3.6659  -3.6612  -3.6611  -3.6604  -3.6600  -3.6571  -3.6566
    -3.6446  -3.6432  -3.6135  -3.6134  -3.5467  -3.5458  -3.5435  -3.5314
    -3.5276  -3.5264  -3.4862  -3.4842  -3.4828  -3.4713  -3.4433  -3.4431
    -3.4325  -3.4325  -3.4262  -3.4261  -3.4146  -3.4133  -3.4065  -3.4061
    -3.4018  -3.3959  -3.3868  -3.3865  -3.3782  -3.3774  -3.3392  -3.3376
    -3.3350  -3.3313  -3.2940  -3.2888  -3.2040  -3.2006  -3.1465  -3.1426
    -3.1161  -3.1157  -3.0931  -3.0923  -3.0831  -3.0827  -3.0774  -3.0555
    -3.0257  -3.0256  -3.0256  -3.0253  -2.9926  -2.9866  -2.9833  -2.9751
    -2.9589  -2.9529  -2.9362  -2.9343  -2.9281  -2.9252  -2.9028  -2.9017
    -2.8571  -2.8560  -2.8493  -2.8373  -2.8304  -2.8301  -2.8018  -2.7997
    -2.7763  -2.7740  -2.7289  -2.7226  -2.7146  -2.7135  -2.6861  -2.6818
    -2.6693  -2.6691  -2.6403  -2.6379  -2.5949  -2.5913  -2.5893  -2.5891
    -2.5739  -2.5734  -2.5456  -2.5434  -2.5352  -2.5267  -2.4814  -2.4808
    -2.4801  -2.4789  -2.4483  -2.4482  -2.4363  -2.4336  -2.4224  -2.4224
    -2.4147  -2.4049  -2.3764  -2.3689  -2.3600  -2.3538  -2.2590  -2.2469
    -2.2462  -2.2459  -2.2403  -2.2391  -2.2386  -2.2384  -2.1853  -2.1718
    -2.1695  -2.1667  -2.1658  -2.1653  -2.1482  -2.1452  -2.1274  -2.1227
    -2.0821  -2.0785  -2.0755  -2.0740  -2.0656  -2.0610  -2.0249  -2.0209
    -2.0123  -2.0070  -1.9900  -1.9882  -1.9554  -1.9465  -1.9153  -1.9133
    -1.8980  -1.8963  -1.8956  -1.8857  -1.8341  -1.8165  -1.7459  -1.7205
    -1.6309  -1.6295  -1.6072  -1.6068  -1.5310  -1.5308  -1.5075  -1.5073
    -1.4573  -1.4547  -1.4539  -1.4528  -1.4331  -1.4328  -1.4128  -1.4067
    -1.3894  -1.3882  -1.3796  -1.3793  -1.3041  -1.2985  -1.2491  -1.2488
    -1.1922  -1.1921  -1.1462  -1.1457  -1.1381  -1.1373  -1.1273  -1.1264
    -1.1187  -1.1175  -1.1099  -1.1093  -1.1072  -1.1048  -1.0589  -1.0576
    -0.9829  -0.9815  -0.9484  -0.9470  -0.9337  -0.9303  -0.9159  -0.9134
    -0.8665  -0.8641  -0.8189  -0.8168  -0.7983  -0.7960  -0.7827  -0.7816
    -0.7473  -0.7427  -0.7096  -0.7084  -0.6978  -0.6923  -0.6903  -0.6885
    -0.6260  -0.6254  -0.6170  -0.6163  -0.5996  -0.5985  -0.5800  -0.5791
    -0.5266  -0.5209  -0.4931  -0.4917  -0.4527  -0.4474  -0.4407  -0.4405
    -0.4212  -0.4211  -0.3043  -0.3042  -0.2827  -0.2823  -0.2788  -0.2785
    -0.2678  -0.2676  -0.2510  -0.2506  -0.2322  -0.2319  -0.2228  -0.2227
    -0.0972  -0.0965  -0.0573  -0.0567  -0.0374  -0.0368  -0.0322  -0.0309
    -0.0012   0.0001   0.0198   0.0200   0.0397   0.0402   0.0855   0.0862
     3.1462   3.1465   3.2503   3.2521   3.2859   3.2880   3.3522   3.3619
     3.4640   3.4673   3.4764   3.4828   3.4914   3.5006   3.5096   3.5147
     3.5229   3.5292   3.5795   3.5932   3.6554   3.6643   3.7655   3.7793
     3.7922   3.8024   3.8146   3.8179   3.8306   3.8321   3.8341   3.8384
     3.9051   3.9089   3.9329   3.9373   3.9390   3.9392   3.9665   3.9665
     4.0272   4.0301   4.0576   4.0613   4.1750   4.1814   4.2732   4.2862
     4.3430   4.3430   4.3440   4.3505   4.3590   4.3726   4.3862   4.3989
     4.4235   4.4321   4.4322   4.4374   4.5052   4.5065   4.5065   4.5071
     4.5111   4.5141   4.5359   4.5380   4.5437   4.5503   4.5586   4.5605
     4.6413   4.6486   4.6505   4.6506   4.6572   4.6575   4.6764   4.6787
     4.6859   4.6897   4.7214   4.7221   4.7227   4.7239   4.7245   4.7248
     4.8060   4.8075   4.8345   4.8364   4.8459   4.8463   4.8793   4.8822
     4.8824   4.8886   4.8887   4.8955   4.9279   4.9293   4.9309   4.9380
     4.9381   4.9395   4.9538   4.9585   4.9597   4.9603   4.9758   4.9784
     4.9840   4.9870   5.0007   5.0053   5.0316   5.0376   5.0418   5.0432
     5.0442   5.0471   5.0480   5.0538   5.0752   5.0775   5.0875   5.0898
     5.1149   5.1176   5.1180   5.1212   5.1221   5.1245   5.1784   5.1818
     5.1879   5.1890   5.2214   5.2249   5.2432   5.2439   5.2862   5.2942
     5.3015   5.3061   5.3096   5.3123   5.3138   5.3193   5.3667   5.3677
     5.3702   5.3716   5.3968   5.4023   5.4043   5.4061   5.4486   5.4555
     5.5191   5.5238   5.5242   5.5331   5.5331   5.5374   5.5418   5.5436
     5.5740   5.5771   5.5916   5.5937   5.6388   5.6519   5.6601   5.6760
     5.7584   5.7625   5.7889   5.7927   5.8060   5.8060   5.8434   5.8449
     5.8774   5.8840   5.8954   5.8981   5.9242   5.9263   5.9349   5.9407

          k = 0.0000 0.4730-0.4545 (455692 PWs)   bands (ev):

   -66.0856 -66.0856 -66.0856 -66.0856 -66.0855 -66.0855 -66.0855 -66.0855
   -66.0850 -66.0850 -66.0850 -66.0850 -66.0850 -66.0850 -66.0849 -66.0849
   -66.0482 -66.0482 -66.0482 -66.0482 -66.0481 -66.0481 -66.0481 -66.0481
   -66.0476 -66.0476 -66.0476 -66.0476 -66.0476 -66.0476 -66.0475 -66.0475
   -65.9203 -65.9203 -65.9202 -65.9202 -65.9197 -65.9197 -65.9196 -65.9196
   -65.9186 -65.9186 -65.9185 -65.9185 -65.9183 -65.9183 -65.9182 -65.9182
   -65.9180 -65.9180 -65.9180 -65.9180 -65.9177 -65.9177 -65.9177 -65.9177
   -65.9166 -65.9166 -65.9166 -65.9166 -65.9160 -65.9160 -65.9160 -65.9160
   -39.1002 -39.1002 -39.0997 -39.0996 -39.0994 -39.0994 -39.0979 -39.0979
   -39.0924 -39.0924 -39.0918 -39.0918 -39.0915 -39.0915 -39.0900 -39.0900
   -39.0686 -39.0686 -39.0672 -39.0672 -39.0663 -39.0663 -39.0641 -39.0641
   -39.0607 -39.0607 -39.0593 -39.0593 -39.0583 -39.0583 -39.0561 -39.0561
   -39.0080 -39.0079 -39.0073 -39.0072 -39.0002 -39.0001 -38.9995 -38.9994
   -38.9893 -38.9892 -38.9881 -38.9881 -38.9873 -38.9872 -38.9861 -38.9861
   -38.9812 -38.9812 -38.9801 -38.9801 -38.9792 -38.9792 -38.9780 -38.9780
   -38.9700 -38.9699 -38.9669 -38.9668 -38.9618 -38.9617 -38.9586 -38.9585
   -30.7569 -30.7558 -30.7491 -30.7480 -30.7429 -30.7417 -30.7345 -30.7332
   -30.6868 -30.6865 -30.6814 -30.6811 -30.6758 -30.6757 -30.6704 -30.6704
   -30.6695 -30.6690 -30.6631 -30.6627 -30.6567 -30.6566 -30.6501 -30.6501
   -30.6041 -30.6035 -30.6006 -30.6003 -30.5954 -30.5953 -30.5907 -30.5902
   -30.5751 -30.5747 -30.5720 -30.5718 -30.5665 -30.5655 -30.5628 -30.5613
   -30.5008 -30.5001 -30.4955 -30.4954 -30.4791 -30.4782 -30.4728 -30.4723
   -30.4713 -30.4703 -30.4651 -30.4648 -30.4500 -30.4487 -30.4426 -30.4420
   -30.4017 -30.3989 -30.3945 -30.3944 -30.3901 -30.3888 -30.3749 -30.3732
   -30.3707 -30.3685 -30.3676 -30.3674 -30.3655 -30.3644 -30.3601 -30.3575
   -30.3541 -30.3522 -30.3488 -30.3453 -30.3350 -30.3338 -30.3335 -30.3320
   -30.3229 -30.3223 -30.3174 -30.3170 -30.3135 -30.3121 -30.3086 -30.3076
   -30.3076 -30.3074 -30.3043 -30.3034 -30.3024 -30.3016 -30.3014 -30.3012
   -30.3012 -30.2994 -30.2962 -30.2956 -30.2943 -30.2942 -30.2906 -30.2905
   -30.2883 -30.2865 -30.2817 -30.2801 -30.2707 -30.2696 -30.2685 -30.2672
   -30.2533 -30.2521 -30.2447 -30.2438 -30.2389 -30.2378 -30.2365 -30.2365
   -30.2363 -30.2355 -30.2315 -30.2313 -30.2223 -30.2219 -30.2217 -30.2213
   -18.0301 -18.0281 -17.9899 -17.9879 -17.9448 -17.9426 -17.9090 -17.9068
   -17.3892 -17.3885 -17.3601 -17.3599 -17.3419 -17.3416 -17.3313 -17.3305
   -17.3100 -17.3093 -17.3015 -17.3008 -17.2690 -17.2682 -17.2357 -17.2350
   -16.9695 -16.9662 -16.9659 -16.9630 -16.9422 -16.9387 -16.9328 -16.9297
   -16.5745 -16.5732 -16.5642 -16.5631 -16.5299 -16.5275 -16.5248 -16.5242
   -16.5240 -16.5203 -16.5168 -16.5147 -16.5042 -16.5033 -16.5027 -16.5025
   -16.5017 -16.4984 -16.4952 -16.4940 -16.4783 -16.4760 -16.4639 -16.4613
   -16.2448 -16.2419 -16.2347 -16.2318 -16.1684 -16.1674 -16.1543 -16.1528
   -15.8845 -15.8843 -15.8800 -15.8791 -15.8701 -15.8694 -15.8500 -15.8490
   -15.8302 -15.8295 -15.8181 -15.8179 -15.7641 -15.7579 -15.7427 -15.7414
   -15.7409 -15.7393 -15.7380 -15.7324 -15.7306 -15.7298 -15.7210 -15.7204
   -15.6907 -15.6901 -15.6833 -15.6829 -15.6540 -15.6526 -15.5997 -15.5982
   -15.4756 -15.4755 -15.4593 -15.4592 -15.4311 -15.4307 -15.4279 -15.4277
   -15.4198 -15.4196 -15.4165 -15.4164 -15.3799 -15.3784 -15.3784 -15.3767
   -15.2936 -15.2935 -15.2913 -15.2913 -15.2894 -15.2891 -15.2816 -15.2806
   -15.2804 -15.2803 -15.2779 -15.2778 -15.2759 -15.2745 -15.2552 -15.2552
[...]
   -38.9799 -38.9798 -38.9760 -38.9760 -38.9733 -38.9724 -38.9718 -38.9717
   -38.9686 -38.9680 -38.9678 -38.9678 -38.9651 -38.9641 -38.9603 -38.9597
   -30.7552 -30.7535 -30.7482 -30.7467 -30.7393 -30.7364 -30.7329 -30.7303
   -30.7152 -30.7143 -30.7064 -30.7052 -30.6961 -30.6930 -30.6870 -30.6834
   -30.6470 -30.6453 -30.6420 -30.6415 -30.6271 -30.6242 -30.6196 -30.6181
   -30.6137 -30.6128 -30.6099 -30.6096 -30.5984 -30.5973 -30.5961 -30.5939
   -30.5566 -30.5552 -30.5541 -30.5518 -30.5399 -30.5386 -30.5377 -30.5359
   -30.5354 -30.5342 -30.5240 -30.5221 -30.5088 -30.5061 -30.4939 -30.4924
   -30.4729 -30.4726 -30.4675 -30.4668 -30.4546 -30.4541 -30.4504 -30.4493
   -30.4027 -30.4025 -30.4020 -30.4007 -30.3739 -30.3729 -30.3661 -30.3658
   -30.3650 -30.3650 -30.3647 -30.3622 -30.3596 -30.3591 -30.3487 -30.3483
   -30.3462 -30.3429 -30.3414 -30.3404 -30.3389 -30.3380 -30.3368 -30.3363
   -30.3269 -30.3255 -30.3247 -30.3242 -30.3171 -30.3157 -30.3151 -30.3143
   -30.3130 -30.3089 -30.3088 -30.3061 -30.3022 -30.3012 -30.2979 -30.2977
   -30.2964 -30.2959 -30.2945 -30.2927 -30.2904 -30.2904 -30.2901 -30.2879
   -30.2838 -30.2804 -30.2775 -30.2759 -30.2725 -30.2707 -30.2689 -30.2679
   -30.2588 -30.2577 -30.2550 -30.2536 -30.2409 -30.2401 -30.2355 -30.2333
   -30.2297 -30.2293 -30.2282 -30.2249 -30.2247 -30.2243 -30.2238 -30.2214
   -17.9766 -17.9732 -17.9337 -17.9299 -17.8319 -17.8244 -17.7890 -17.7807
   -17.7588 -17.7560 -17.7279 -17.7250 -17.6187 -17.6116 -17.5880 -17.5807
   -17.0029 -17.0020 -16.9660 -16.9649 -16.9550 -16.9490 -16.9235 -16.9227
   -16.9164 -16.9118 -16.9079 -16.9069 -16.8971 -16.8859 -16.8731 -16.8713
   -16.7369 -16.7224 -16.7000 -16.6825 -16.6716 -16.6497 -16.6164 -16.5896
   -16.5178 -16.5142 -16.5106 -16.5021 -16.4932 -16.4886 -16.4873 -16.4767
   -16.4388 -16.4312 -16.4011 -16.3920 -16.3627 -16.3617 -16.3568 -16.3498
   -16.3351 -16.3232 -16.3156 -16.3143 -16.2800 -16.2770 -16.2579 -16.2518
   -16.0589 -16.0504 -16.0398 -16.0352 -16.0162 -16.0042 -16.0018 -15.9944
   -15.8920 -15.8875 -15.8474 -15.8473 -15.8398 -15.8290 -15.7970 -15.7906
   -15.7108 -15.6982 -15.6926 -15.6852 -15.6780 -15.6725 -15.6636 -15.6499
   -15.5843 -15.5743 -15.5657 -15.5572 -15.5233 -15.5179 -15.4952 -15.4942
   -15.4737 -15.4670 -15.4628 -15.4612 -15.4311 -15.4309 -15.4246 -15.4243
   -15.4105 -15.4081 -15.3975 -15.3967 -15.3951 -15.3950 -15.3918 -15.3911
   -15.3083 -15.3070 -15.3069 -15.3061 -15.2917 -15.2893 -15.2831 -15.2825
   -15.2819 -15.2810 -15.2803 -15.2792 -15.2445 -15.2436 -15.2315 -15.2309
    -6.2154  -6.2119  -6.1915  -6.1879  -6.0135  -5.9982  -5.9859  -5.9764
    -5.9704  -5.9673  -5.9482  -5.9389  -5.8264  -5.8074  -5.7957  -5.7781
    -5.7768  -5.7538  -5.7428  -5.7195  -5.5076  -5.4756  -5.4572  -5.4269
    -5.3289  -5.3239  -5.3018  -5.2968  -5.2264  -5.2202  -5.2020  -5.1954
    -5.1570  -5.1570  -5.1078  -5.1064  -5.0677  -5.0374  -5.0102  -4.9812
    -4.8073  -4.7912  -4.7903  -4.7888  -4.7711  -4.7678  -4.7620  -4.7542
    -4.7523  -4.7361  -4.7254  -4.7226  -4.7043  -4.7028  -4.6639  -4.6250
    -4.5850  -4.5343  -4.5077  -4.4974  -4.4972  -4.4920  -4.4851  -4.4837
    -4.4571  -4.4556  -4.4362  -4.4275  -4.4241  -4.4073  -4.3876  -4.3863
    -4.3834  -4.3784  -4.3529  -4.3344  -4.2950  -4.2934  -4.2894  -4.2760
    -4.1766  -4.1251  -4.1238  -4.0935  -4.0883  -4.0745  -4.0727  -4.0590
    -4.0456  -4.0331  -3.9743  -3.9688  -3.8696  -3.8637  -3.8596  -3.8532
    -3.8510  -3.8228  -3.8160  -3.8141  -3.7955  -3.7805  -3.7800  -3.7711
    -3.7691  -3.7468  -3.7464  -3.7448  -3.7344  -3.7285  -3.7279  -3.7229
    -3.7206  -3.7171  -3.6885  -3.6844  -3.6772  -3.6763  -3.6745  -3.6713
    -3.6568  -3.6549  -3.6525  -3.6509  -3.6468  -3.6467  -3.6270  -3.6209
    -3.6017  -3.6007  -3.5571  -3.5528  -3.4841  -3.4815  -3.4790  -3.4755
    -3.4570  -3.4505  -3.4478  -3.4467  -3.4410  -3.4343  -3.4205  -3.4143
    -3.4083  -3.4030  -3.4018  -3.3971  -3.3965  -3.3952  -3.3938  -3.3822
    -3.3768  -3.3764  -3.3732  -3.3585  -3.2668  -3.2662  -3.2582  -3.2422
    -3.2267  -3.2170  -3.2162  -3.2147  -3.1302  -3.1252  -3.1026  -3.0981
    -3.0140  -3.0051  -3.0009  -2.9999  -2.9986  -2.9958  -2.9786  -2.9765
    -2.9747  -2.9394  -2.9030  -2.8675  -2.8668  -2.8638  -2.8587  -2.8399
    -2.8147  -2.8117  -2.8107  -2.7992  -2.7991  -2.7786  -2.7749  -2.7700
    -2.7668  -2.7624  -2.7612  -2.7561  -2.7538  -2.7494  -2.7470  -2.7422
    -2.7253  -2.6750  -2.6596  -2.6567  -2.6530  -2.6366  -2.6159  -2.6134
    -2.6031  -2.5798  -2.5755  -2.5598  -2.5321  -2.5235  -2.5158  -2.5118
    -2.4915  -2.4846  -2.4834  -2.4703  -2.4606  -2.4465  -2.4442  -2.4354
    -2.4269  -2.4214  -2.3962  -2.3893  -2.3890  -2.3501  -2.3465  -2.3197
    -2.3154  -2.2911  -2.2879  -2.2729  -2.2699  -2.2684  -2.2653  -2.2463
    -2.2429  -2.2392  -2.2331  -2.2033  -2.1853  -2.1636  -2.1456  -2.1288
    -2.0466  -2.0349  -2.0050  -1.9845  -1.9727  -1.9614  -1.9613  -1.9576
    -1.9568  -1.9280  -1.9252  -1.9111  -1.9027  -1.9025  -1.8939  -1.8661
    -1.8660  -1.8652  -1.8578  -1.8553  -1.8550  -1.8524  -1.8177  -1.8136
    -1.8105  -1.8048  -1.7089  -1.7054  -1.6080  -1.6080  -1.6056  -1.6053
    -1.4203  -1.4151  -1.3866  -1.3709  -1.3601  -1.3584  -1.3575  -1.3464
    -1.3425  -1.3397  -1.3146  -1.3120  -1.3110  -1.3067  -1.3052  -1.3042
    -1.2897  -1.2850  -1.2588  -1.2588  -1.1840  -1.1827  -1.1626  -1.1584
    -1.1577  -1.1542  -1.1369  -1.1361  -1.0679  -1.0622  -1.0547  -1.0524
    -0.9637  -0.9545  -0.9369  -0.9237  -0.9117  -0.9009  -0.8976  -0.8919
    -0.8916  -0.8764  -0.8683  -0.8629  -0.8024  -0.8019  -0.7574  -0.7531
    -0.7340  -0.7272  -0.7058  -0.7049  -0.7032  -0.7029  -0.6403  -0.6345
    -0.6007  -0.5983  -0.5563  -0.5375  -0.5290  -0.5270  -0.5045  -0.4942
    -0.4580  -0.4401  -0.4008  -0.3816  -0.3783  -0.3753  -0.3725  -0.3718
    -0.3686  -0.3641  -0.3622  -0.3606  -0.3131  -0.3029  -0.2924  -0.2832
    -0.2516  -0.2483  -0.2397  -0.2373  -0.2275  -0.2241  -0.2236  -0.2203
    -0.1350  -0.1300  -0.1254  -0.1204  -0.0636  -0.0587  -0.0529  -0.0475
    -0.0017  -0.0003   0.0223   0.0228   0.1352   0.1366   0.1573   0.1582
     3.1086   3.1127   3.1785   3.1814   3.2681   3.2882   3.2902   3.2911
     3.3056   3.3401   3.3808   3.3851   3.4645   3.4726   3.4747   3.4781
     3.5614   3.5820   3.6595   3.6855   3.6875   3.6967   3.7233   3.7364
     3.7624   3.7688   3.7695   3.7797   3.8889   3.9177   3.9800   4.0091
     4.0092   4.0132   4.0554   4.0712   4.0713   4.0938   4.1248   4.1328
     4.1520   4.1542   4.1797   4.1840   4.2113   4.2371   4.2618   4.2778
     4.2830   4.3007   4.3060   4.3171   4.3197   4.3548   4.3642   4.3904
     4.3953   4.4039   4.4188   4.4248   4.4292   4.4330   4.4356   4.4437
     4.5000   4.5034   4.5126   4.5368   4.5463   4.5464   4.5633   4.5912
     4.5933   4.6081   4.6088   4.6240   4.6586   4.6622   4.6683   4.6717
     4.6751   4.7089   4.7203   4.7567   4.7588   4.7591   4.7628   4.7662
     4.7686   4.7899   4.8028   4.8091   4.8140   4.8146   4.8189   4.8245
     4.8567   4.8609   4.8691   4.8714   4.8773   4.8795   4.8856   4.8901
     4.9073   4.9161   4.9272   4.9355   4.9357   4.9359   4.9472   4.9600
     4.9673   4.9693   4.9754   4.9986   4.9998   5.0009   5.0080   5.0169
     5.0182   5.0277   5.0455   5.0651   5.0689   5.0847   5.0870   5.0914
     5.0928   5.0940   5.1268   5.1425   5.1947   5.1969   5.2004   5.2083
     5.2104   5.2139   5.2256   5.2382   5.2547   5.2604   5.2631   5.2919
     5.3379   5.3418   5.3633   5.3775   5.3830   5.4010   5.4047   5.4090
     5.4284   5.4322   5.4552   5.4633   5.4669   5.4829   5.4973   5.5023
     5.5107   5.5144   5.5231   5.5410   5.5508   5.5705   5.5727   5.5891
     5.5903   5.5937   5.5959   5.6042   5.6152   5.6174   5.6446   5.6565
     5.6601   5.6675   5.6698   5.6908   5.6908   5.7081   5.7651   5.7718
     5.7883   5.7885   5.8005   5.8183   5.8435   5.8481   5.8664   5.8705

          k = 0.4000-0.2365-0.4545 (455754 PWs)   bands (ev):

   -66.0856 -66.0856 -66.0856 -66.0856 -66.0855 -66.0855 -66.0855 -66.0855
   -66.0850 -66.0850 -66.0850 -66.0850 -66.0850 -66.0850 -66.0849 -66.0849
   -66.0482 -66.0482 -66.0482 -66.0482 -66.0481 -66.0481 -66.0481 -66.0481
   -66.0476 -66.0476 -66.0476 -66.0476 -66.0476 -66.0476 -66.0475 -66.0475
   -65.9199 -65.9199 -65.9198 -65.9198 -65.9195 -65.9195 -65.9194 -65.9194
   -65.9194 -65.9194 -65.9193 -65.9193 -65.9190 -65.9190 -65.9189 -65.9189
   -65.9173 -65.9173 -65.9173 -65.9173 -65.9169 -65.9169 -65.9169 -65.9169
   -65.9168 -65.9168 -65.9167 -65.9167 -65.9164 -65.9164 -65.9163 -65.9163
   -39.1011 -39.1010 -39.1003 -39.1003 -39.0986 -39.0982 -39.0978 -39.0974
   -39.0932 -39.0932 -39.0925 -39.0924 -39.0907 -39.0903 -39.0899 -39.0895
   -39.0707 -39.0705 -39.0694 -39.0691 -39.0635 -39.0629 -39.0629 -39.0626
   -39.0626 -39.0620 -39.0615 -39.0612 -39.0555 -39.0549 -39.0545 -39.0540
   -39.0052 -39.0050 -39.0032 -39.0020 -39.0011 -39.0010 -38.9985 -38.9974
   -38.9972 -38.9970 -38.9953 -38.9941 -38.9932 -38.9931 -38.9906 -38.9890
   -38.9799 -38.9798 -38.9760 -38.9760 -38.9733 -38.9724 -38.9718 -38.9717
   -38.9686 -38.9680 -38.9678 -38.9678 -38.9651 -38.9641 -38.9603 -38.9597
   -30.7552 -30.7535 -30.7482 -30.7467 -30.7393 -30.7364 -30.7329 -30.7303
   -30.7152 -30.7143 -30.7064 -30.7052 -30.6961 -30.6930 -30.6870 -30.6834
   -30.6470 -30.6453 -30.6420 -30.6415 -30.6271 -30.6242 -30.6196 -30.6181
   -30.6137 -30.6128 -30.6099 -30.6096 -30.5984 -30.5973 -30.5961 -30.5939
   -30.5566 -30.5552 -30.5541 -30.5518 -30.5399 -30.5386 -30.5377 -30.5359
   -30.5354 -30.5342 -30.5240 -30.5221 -30.5088 -30.5061 -30.4939 -30.4924
   -30.4729 -30.4726 -30.4675 -30.4668 -30.4546 -30.4541 -30.4504 -30.4493
   -30.4027 -30.4025 -30.4020 -30.4007 -30.3739 -30.3729 -30.3661 -30.3658
   -30.3650 -30.3650 -30.3647 -30.3622 -30.3596 -30.3591 -30.3487 -30.3483
   -30.3462 -30.3429 -30.3414 -30.3404 -30.3389 -30.3380 -30.3368 -30.3363
   -30.3269 -30.3255 -30.3247 -30.3242 -30.3171 -30.3157 -30.3151 -30.3143
   -30.3130 -30.3089 -30.3088 -30.3061 -30.3022 -30.3012 -30.2979 -30.2977
   -30.2964 -30.2959 -30.2945 -30.2927 -30.2904 -30.2904 -30.2901 -30.2879
   -30.2838 -30.2804 -30.2775 -30.2759 -30.2725 -30.2707 -30.2689 -30.2679
   -30.2588 -30.2577 -30.2550 -30.2536 -30.2409 -30.2401 -30.2355 -30.2333
   -30.2297 -30.2293 -30.2282 -30.2249 -30.2247 -30.2243 -30.2238 -30.2214
   -17.9766 -17.9732 -17.9337 -17.9299 -17.8319 -17.8244 -17.7890 -17.7807
   -17.7588 -17.7560 -17.7279 -17.7250 -17.6187 -17.6116 -17.5880 -17.5807
   -17.0029 -17.0020 -16.9660 -16.9649 -16.9550 -16.9490 -16.9235 -16.9227
   -16.9164 -16.9118 -16.9079 -16.9069 -16.8971 -16.8859 -16.8731 -16.8713
   -16.7369 -16.7224 -16.7000 -16.6825 -16.6716 -16.6497 -16.6164 -16.5896
   -16.5178 -16.5142 -16.5106 -16.5021 -16.4932 -16.4886 -16.4873 -16.4767
   -16.4388 -16.4312 -16.4011 -16.3920 -16.3627 -16.3617 -16.3568 -16.3498
   -16.3351 -16.3232 -16.3156 -16.3143 -16.2800 -16.2770 -16.2579 -16.2518
   -16.0589 -16.0504 -16.0398 -16.0352 -16.0162 -16.0042 -16.0018 -15.9944
   -15.8920 -15.8875 -15.8474 -15.8473 -15.8398 -15.8290 -15.7970 -15.7906
   -15.7108 -15.6982 -15.6926 -15.6852 -15.6780 -15.6725 -15.6636 -15.6499
   -15.5843 -15.5743 -15.5657 -15.5572 -15.5233 -15.5179 -15.4952 -15.4942
   -15.4737 -15.4670 -15.4628 -15.4612 -15.4311 -15.4309 -15.4246 -15.4243
   -15.4105 -15.4081 -15.3975 -15.3967 -15.3951 -15.3950 -15.3918 -15.3911
   -15.3083 -15.3070 -15.3069 -15.3061 -15.2917 -15.2893 -15.2831 -15.2825
   -15.2819 -15.2810 -15.2803 -15.2792 -15.2445 -15.2436 -15.2315 -15.2309
    -6.2154  -6.2119  -6.1915  -6.1879  -6.0135  -5.9982  -5.9859  -5.9764
    -5.9704  -5.9673  -5.9482  -5.9389  -5.8264  -5.8074  -5.7957  -5.7781
    -5.7768  -5.7538  -5.7428  -5.7195  -5.5076  -5.4756  -5.4572  -5.4269
    -5.3289  -5.3239  -5.3018  -5.2968  -5.2264  -5.2202  -5.2020  -5.1954
    -5.1570  -5.1570  -5.1078  -5.1064  -5.0677  -5.0374  -5.0102  -4.9812
    -4.8073  -4.7912  -4.7903  -4.7888  -4.7711  -4.7678  -4.7620  -4.7542
    -4.7523  -4.7361  -4.7254  -4.7226  -4.7043  -4.7028  -4.6639  -4.6250
    -4.5850  -4.5343  -4.5077  -4.4974  -4.4972  -4.4920  -4.4851  -4.4837
    -4.4571  -4.4556  -4.4362  -4.4275  -4.4241  -4.4073  -4.3876  -4.3863
    -4.3834  -4.3784  -4.3529  -4.3344  -4.2950  -4.2934  -4.2894  -4.2760
    -4.1766  -4.1251  -4.1238  -4.0935  -4.0883  -4.0745  -4.0727  -4.0590
    -4.0456  -4.0331  -3.9743  -3.9688  -3.8696  -3.8637  -3.8596  -3.8532
    -3.8510  -3.8228  -3.8160  -3.8141  -3.7955  -3.7805  -3.7800  -3.7711
    -3.7691  -3.7468  -3.7464  -3.7448  -3.7344  -3.7285  -3.7279  -3.7229
    -3.7206  -3.7171  -3.6885  -3.6844  -3.6772  -3.6763  -3.6745  -3.6713
    -3.6568  -3.6549  -3.6525  -3.6509  -3.6468  -3.6467  -3.6270  -3.6209
    -3.6017  -3.6007  -3.5571  -3.5528  -3.4841  -3.4815  -3.4790  -3.4755
    -3.4570  -3.4505  -3.4478  -3.4467  -3.4410  -3.4343  -3.4205  -3.4143
    -3.4083  -3.4030  -3.4018  -3.3971  -3.3965  -3.3952  -3.3938  -3.3822
    -3.3768  -3.3764  -3.3732  -3.3585  -3.2668  -3.2662  -3.2582  -3.2422
    -3.2267  -3.2170  -3.2162  -3.2147  -3.1302  -3.1252  -3.1026  -3.0981
    -3.0140  -3.0051  -3.0009  -2.9999  -2.9986  -2.9958  -2.9786  -2.9765
    -2.9747  -2.9394  -2.9030  -2.8675  -2.8668  -2.8638  -2.8587  -2.8399
    -2.8147  -2.8117  -2.8107  -2.7992  -2.7991  -2.7786  -2.7749  -2.7700
    -2.7668  -2.7624  -2.7612  -2.7561  -2.7538  -2.7494  -2.7470  -2.7422
    -2.7253  -2.6750  -2.6596  -2.6567  -2.6530  -2.6366  -2.6159  -2.6134
    -2.6031  -2.5798  -2.5755  -2.5598  -2.5321  -2.5235  -2.5158  -2.5118
    -2.4915  -2.4846  -2.4834  -2.4703  -2.4606  -2.4465  -2.4442  -2.4354
    -2.4269  -2.4214  -2.3962  -2.3893  -2.3890  -2.3501  -2.3465  -2.3197
    -2.3154  -2.2911  -2.2879  -2.2729  -2.2699  -2.2684  -2.2653  -2.2463
    -2.2429  -2.2392  -2.2331  -2.2033  -2.1853  -2.1636  -2.1456  -2.1288
    -2.0466  -2.0349  -2.0050  -1.9845  -1.9727  -1.9614  -1.9613  -1.9576
    -1.9568  -1.9280  -1.9252  -1.9111  -1.9027  -1.9025  -1.8939  -1.8661
    -1.8660  -1.8652  -1.8578  -1.8553  -1.8550  -1.8524  -1.8177  -1.8136
    -1.8105  -1.8048  -1.7089  -1.7054  -1.6080  -1.6080  -1.6056  -1.6053
    -1.4203  -1.4151  -1.3866  -1.3709  -1.3601  -1.3584  -1.3575  -1.3464
    -1.3425  -1.3397  -1.3147  -1.3120  -1.3110  -1.3067  -1.3052  -1.3042
    -1.2897  -1.2850  -1.2588  -1.2588  -1.1840  -1.1827  -1.1626  -1.1584
    -1.1577  -1.1542  -1.1369  -1.1361  -1.0679  -1.0622  -1.0547  -1.0524
    -0.9637  -0.9545  -0.9369  -0.9237  -0.9117  -0.9009  -0.8976  -0.8919
    -0.8916  -0.8764  -0.8683  -0.8629  -0.8024  -0.8019  -0.7574  -0.7531
    -0.7340  -0.7272  -0.7058  -0.7049  -0.7032  -0.7029  -0.6403  -0.6345
    -0.6007  -0.5983  -0.5563  -0.5375  -0.5290  -0.5270  -0.5045  -0.4942
    -0.4580  -0.4401  -0.4008  -0.3816  -0.3783  -0.3753  -0.3725  -0.3718
    -0.3686  -0.3641  -0.3622  -0.3606  -0.3131  -0.3029  -0.2924  -0.2832
    -0.2516  -0.2483  -0.2397  -0.2373  -0.2275  -0.2241  -0.2236  -0.2203
    -0.1350  -0.1300  -0.1254  -0.1204  -0.0636  -0.0587  -0.0529  -0.0475
    -0.0017  -0.0003   0.0223   0.0228   0.1352   0.1366   0.1573   0.1582
     3.1085   3.1127   3.1784   3.1813   3.2680   3.2882   3.2959   3.2968
     3.3056   3.3401   3.3857   3.3901   3.4645   3.4726   3.4747   3.4782
     3.5616   3.5821   3.6595   3.6890   3.6911   3.6966   3.7210   3.7360
     3.7636   3.7723   3.7731   3.7782   3.8847   3.9129   3.9782   4.0057
     4.0096   4.0135   4.0552   4.0730   4.0733   4.0933   4.1252   4.1334
     4.1543   4.1566   4.1812   4.1856   4.2100   4.2365   4.2591   4.2751
     4.2833   4.3011   4.3052   4.3157   4.3181   4.3551   4.3648   4.3827
     4.3955   4.3962   4.4190   4.4216   4.4237   4.4279   4.4336   4.4436
     4.4992   4.5033   4.5123   4.5366   4.5448   4.5461   4.5625   4.5914
     4.5928   4.6078   4.6086   4.6222   4.6571   4.6616   4.6651   4.6718
     4.6739   4.7077   4.7197   4.7528   4.7586   4.7586   4.7613   4.7662
     4.7666   4.7893   4.8014   4.8091   4.8129   4.8144   4.8184   4.8230
     4.8560   4.8578   4.8670   4.8712   4.8771   4.8782   4.8841   4.8895
     4.9066   4.9142   4.9261   4.9312   4.9350   4.9352   4.9456   4.9599
     4.9660   4.9674   4.9731   4.9962   4.9972   5.0006   5.0070   5.0148
     5.0174   5.0237   5.0442   5.0629   5.0679   5.0832   5.0861   5.0912
     5.0929   5.0939   5.1252   5.1415   5.1939   5.1960   5.1994   5.2068
     5.2094   5.2095   5.2249   5.2348   5.2541   5.2580   5.2601   5.2893
     5.3368   5.3397   5.3601   5.3764   5.3815   5.3964   5.4044   5.4090
     5.4264   5.4297   5.4545   5.4595   5.4652   5.4825   5.4972   5.5013
     5.5101   5.5134   5.5219   5.5401   5.5473   5.5677   5.5700   5.5834
     5.5887   5.5930   5.5933   5.6027   5.6078   5.6124   5.6420   5.6547
     5.6549   5.6627   5.6690   5.6877   5.6897   5.7070   5.7650   5.7708
     5.7883   5.7885   5.7983   5.8182   5.8413   5.8481   5.8666   5.8708

     the Fermi energy is     3.9451 ev

!    total energy              =  -25434.10723407 Ry
     total all-electron energy =  -1009073.518077 Ry
     estimated scf accuracy    <          7.1E-09 Ry
     smearing contrib. (-TS)   =      -0.29991954 Ry
     internal energy E=F+TS    =  -25433.80731453 Ry

     The total energy is F=E-TS. E is the sum of the following terms:
     one-electron contribution =  -24514.29644229 Ry
     hartree contribution      =   12448.10013497 Ry
     xc contribution           =   -2195.00206761 Ry
     ewald contribution        =    7384.87872168 Ry
     one-center paw contrib.   =  -18557.48766129 Ry

     convergence has been achieved in  43 iterations
     Message from routine punch:
     Nothing written, as per user request (disk_io='none')

     init_run     :    250.14s CPU    252.61s WALL (       1 calls)
     electrons    :   7538.91s CPU   7613.07s WALL (       1 calls)

     Called by init_run:
     wfcinit      :     83.78s CPU     85.17s WALL (       1 calls)
     potinit      :     60.49s CPU     60.67s WALL (       1 calls)
     hinit0       :      1.75s CPU      2.41s WALL (       1 calls)

     Called by electrons:
     c_bands      :   6599.32s CPU   6662.79s WALL (      43 calls)
     sum_band     :    842.75s CPU    852.05s WALL (      43 calls)
     v_of_rho     :      1.07s CPU      1.10s WALL (      44 calls)
     newd         :     44.79s CPU     44.95s WALL (      44 calls)
     PAW_pot      :     35.01s CPU     35.19s WALL (      44 calls)
     mix_rho      :      8.69s CPU      9.57s WALL (      43 calls)

     Called by c_bands:
     init_us_2    :      8.64s CPU      8.74s WALL (     174 calls)
     init_us_2:cp :      8.64s CPU      8.74s WALL (     174 calls)
     cegterg      :   6303.21s CPU   6363.63s WALL (      86 calls)

     Called by *egterg:
     cdiaghg      :    142.42s CPU    144.72s WALL (     435 calls)
     h_psi        :   2865.04s CPU   2898.21s WALL (     437 calls)
     s_psi        :    751.52s CPU    757.13s WALL (     437 calls)
     g_psi        :      4.24s CPU      4.26s WALL (     349 calls)

     Called by h_psi:
     h_psi:calbec :    598.52s CPU    606.64s WALL (     437 calls)
     vloc_psi     :   1713.32s CPU   1726.99s WALL (     437 calls)
     add_vuspsi   :    544.90s CPU    550.81s WALL (     437 calls)

     General routines
     calbec       :    873.27s CPU    885.06s WALL (     523 calls)
     fft          :      3.71s CPU      3.73s WALL (     434 calls)
     ffts         :      3.30s CPU      3.32s WALL (     172 calls)
     fftw         :   1734.36s CPU   1746.67s WALL (  872276 calls)

     Parallel routines

     PWSCF        :      2h10m CPU      2h11m WALL


   This run was terminated on:  17:55: 3  28Feb2024            

=------------------------------------------------------------------------------=
   JOB DONE.
=------------------------------------------------------------------------------=
